 Entering Gaussian System, Link 0=g16
 Input=/Volumes/SSD-PSM960U3-UW/CoMFA_calc/SKFLCXNDKRUHTA-UHFFFAOYSA-N/opt0.gjf
 Output=/Volumes/SSD-PSM960U3-UW/CoMFA_calc/SKFLCXNDKRUHTA-UHFFFAOYSA-N/opt0.log
 Initial command:
 /Applications/g16/l1.exe "/Users/mac_poclab/PycharmProjects/CoMFA_model/Gau-17355.inp" -scrdir="/Users/mac_poclab/PycharmProjects/CoMFA_model/"
 Entering Link 1 = /Applications/g16/l1.exe PID=     17356.
  
 Copyright (c) 1988,1990,1992,1993,1995,1998,2003,2009,2016,
            Gaussian, Inc.  All Rights Reserved.
  
 This is part of the Gaussian(R) 16 program.  It is based on
 the Gaussian(R) 09 system (copyright 2009, Gaussian, Inc.),
 the Gaussian(R) 03 system (copyright 2003, Gaussian, Inc.),
 the Gaussian(R) 98 system (copyright 1998, Gaussian, Inc.),
 the Gaussian(R) 94 system (copyright 1995, Gaussian, Inc.),
 the Gaussian 92(TM) system (copyright 1992, Gaussian, Inc.),
 the Gaussian 90(TM) system (copyright 1990, Gaussian, Inc.),
 the Gaussian 88(TM) system (copyright 1988, Gaussian, Inc.),
 the Gaussian 86(TM) system (copyright 1986, Carnegie Mellon
 University), and the Gaussian 82(TM) system (copyright 1983,
 Carnegie Mellon University). Gaussian is a federally registered
 trademark of Gaussian, Inc.
  
 This software contains proprietary and confidential information,
 including trade secrets, belonging to Gaussian, Inc.
  
 This software is provided under written license and may be
 used, copied, transmitted, or stored only in accord with that
 written license.
  
 The following legend is applicable only to US Government
 contracts under FAR:
  
                    RESTRICTED RIGHTS LEGEND
  
 Use, reproduction and disclosure by the US Government is
 subject to restrictions as set forth in subparagraphs (a)
 and (c) of the Commercial Computer Software - Restricted
 Rights clause in FAR 52.227-19.
  
 Gaussian, Inc.
 340 Quinnipiac St., Bldg. 40, Wallingford CT 06492
  
  
 ---------------------------------------------------------------
 Warning -- This program may not be used in any manner that
 competes with the business of Gaussian, Inc. or will provide
 assistance to any competitor of Gaussian, Inc.  The licensee
 of this program is prohibited from giving any competitor of
 Gaussian, Inc. access to this program.  By using this program,
 the user acknowledges that Gaussian, Inc. is engaged in the
 business of creating and licensing software in the field of
 computational chemistry and represents and warrants to the
 licensee that it is not a competitor of Gaussian, Inc. and that
 it will not use this program in any manner prohibited above.
 ---------------------------------------------------------------
  

 Cite this work as:
 Gaussian 16, Revision A.03,
 M. J. Frisch, G. W. Trucks, H. B. Schlegel, G. E. Scuseria, 
 M. A. Robb, J. R. Cheeseman, G. Scalmani, V. Barone, 
 G. A. Petersson, H. Nakatsuji, X. Li, M. Caricato, A. V. Marenich, 
 J. Bloino, B. G. Janesko, R. Gomperts, B. Mennucci, H. P. Hratchian, 
 J. V. Ortiz, A. F. Izmaylov, J. L. Sonnenberg, D. Williams-Young, 
 F. Ding, F. Lipparini, F. Egidi, J. Goings, B. Peng, A. Petrone, 
 T. Henderson, D. Ranasinghe, V. G. Zakrzewski, J. Gao, N. Rega, 
 G. Zheng, W. Liang, M. Hada, M. Ehara, K. Toyota, R. Fukuda, 
 J. Hasegawa, M. Ishida, T. Nakajima, Y. Honda, O. Kitao, H. Nakai, 
 T. Vreven, K. Throssell, J. A. Montgomery, Jr., J. E. Peralta, 
 F. Ogliaro, M. J. Bearpark, J. J. Heyd, E. N. Brothers, K. N. Kudin, 
 V. N. Staroverov, T. A. Keith, R. Kobayashi, J. Normand, 
 K. Raghavachari, A. P. Rendell, J. C. Burant, S. S. Iyengar, 
 J. Tomasi, M. Cossi, J. M. Millam, M. Klene, C. Adamo, R. Cammi, 
 J. W. Ochterski, R. L. Martin, K. Morokuma, O. Farkas, 
 J. B. Foresman, and D. J. Fox, Gaussian, Inc., Wallingford CT, 2016.
 
 ******************************************
 Gaussian 16:  EM64M-G16RevA.03 25-Dec-2016
                16-Nov-2024 
 ******************************************
 %nprocshared=30
 Will use up to   30 processors via shared memory.
 %mem=30GB
 %chk= 0.chk
 -------------------------------
 # freq opt=tight b3lyp 6-31g(d)
 -------------------------------
 1/7=10,18=20,19=15,26=3,38=1/1,3;
 2/9=110,12=2,17=6,18=5,40=1/2;
 3/5=1,6=6,7=1,11=2,25=1,30=1,71=1,74=-5/1,2,3;
 4//1;
 5/5=2,38=5/2;
 6/7=2,8=2,9=2,10=2,28=1/1;
 7//1,2,3,16;
 1/7=10,18=20,19=15,26=3/3(2);
 2/9=110/2;
 99//99;
 2/9=110/2;
 3/5=1,6=6,7=1,11=2,25=1,30=1,71=1,74=-5/1,2,3;
 4/5=5,16=3,69=1/1;
 5/5=2,38=5/2;
 7//1,2,3,16;
 1/7=10,18=20,19=15,26=3/3(-5);
 2/9=110/2;
 6/7=2,8=2,9=2,10=2,19=2,28=1/1;
 99/9=1/99;
 ---------
 good luck
 ---------
 Symbolic Z-matrix:
 Charge =  0 Multiplicity = 1
 O                     0.22305  -2.14712  -1.12548 
 C                     0.21029  -1.08498  -0.50889 
 C                    -1.08132  -0.38778  -0.28943 
 C                    -1.35861   0.2857    0.90655 
 C                    -2.59069   0.92041   1.07707 
 C                    -3.54818   0.87324   0.06332 
 C                    -3.28229   0.18396  -1.11977 
 C                    -2.05277  -0.45225  -1.29487 
 C                     1.48997  -0.53004  -0.0044 
 C                     1.72667   0.84337   0.04623 
 C                     2.95612   1.26807   0.51714 
 N                     3.9348    0.43053   0.92141 
 C                     3.68601  -0.8943    0.83498 
 C                     2.49242  -1.42036   0.37893 
 H                    -0.63787   0.30806   1.71973 
 H                    -2.81002   1.44295   2.00523 
 H                    -4.50911   1.36381   0.20033 
 H                    -4.0347    0.13522  -1.90317 
 H                    -1.85327  -0.99931  -2.21429 
 H                     0.9946    1.57088  -0.28458 
 H                     3.19872   2.32548   0.57924 
 H                     4.4998   -1.5414    1.15029 
 H                     2.34639  -2.49414   0.32178 
 

 GradGradGradGradGradGradGradGradGradGradGradGradGradGradGradGradGradGrad
 Berny optimization.
 Initialization pass.
                           ----------------------------
                           !    Initial Parameters    !
                           ! (Angstroms and Degrees)  !
 --------------------------                            --------------------------
 ! Name  Definition              Value          Derivative Info.                !
 --------------------------------------------------------------------------------
 ! R1    R(1,2)                  1.2282         estimate D2E/DX2                !
 ! R2    R(2,3)                  1.4841         estimate D2E/DX2                !
 ! R3    R(2,9)                  1.4833         estimate D2E/DX2                !
 ! R4    R(3,4)                  1.4003         estimate D2E/DX2                !
 ! R5    R(3,8)                  1.3996         estimate D2E/DX2                !
 ! R6    R(4,5)                  1.3964         estimate D2E/DX2                !
 ! R7    R(4,15)                 1.0869         estimate D2E/DX2                !
 ! R8    R(5,6)                  1.3952         estimate D2E/DX2                !
 ! R9    R(5,16)                 1.0875         estimate D2E/DX2                !
 ! R10   R(6,7)                  1.3948         estimate D2E/DX2                !
 ! R11   R(6,17)                 1.0876         estimate D2E/DX2                !
 ! R12   R(7,8)                  1.3954         estimate D2E/DX2                !
 ! R13   R(7,18)                 1.0873         estimate D2E/DX2                !
 ! R14   R(8,19)                 1.0883         estimate D2E/DX2                !
 ! R15   R(9,10)                 1.3946         estimate D2E/DX2                !
 ! R16   R(9,14)                 1.3945         estimate D2E/DX2                !
 ! R17   R(10,11)                1.3834         estimate D2E/DX2                !
 ! R18   R(10,20)                1.0838         estimate D2E/DX2                !
 ! R19   R(11,12)                1.3501         estimate D2E/DX2                !
 ! R20   R(11,21)                1.0867         estimate D2E/DX2                !
 ! R21   R(12,13)                1.3508         estimate D2E/DX2                !
 ! R22   R(13,14)                1.3818         estimate D2E/DX2                !
 ! R23   R(13,22)                1.0865         estimate D2E/DX2                !
 ! R24   R(14,23)                1.0852         estimate D2E/DX2                !
 ! A1    A(1,2,3)              119.3108         estimate D2E/DX2                !
 ! A2    A(1,2,9)              119.0349         estimate D2E/DX2                !
 ! A3    A(3,2,9)              121.6542         estimate D2E/DX2                !
 ! A4    A(2,3,4)              121.6405         estimate D2E/DX2                !
 ! A5    A(2,3,8)              118.4383         estimate D2E/DX2                !
 ! A6    A(4,3,8)              119.8862         estimate D2E/DX2                !
 ! A7    A(3,4,5)              119.8432         estimate D2E/DX2                !
 ! A8    A(3,4,15)             121.1721         estimate D2E/DX2                !
 ! A9    A(5,4,15)             118.9725         estimate D2E/DX2                !
 ! A10   A(4,5,6)              120.0927         estimate D2E/DX2                !
 ! A11   A(4,5,16)             120.0384         estimate D2E/DX2                !
 ! A12   A(6,5,16)             119.8652         estimate D2E/DX2                !
 ! A13   A(5,6,7)              120.1445         estimate D2E/DX2                !
 ! A14   A(5,6,17)             119.9711         estimate D2E/DX2                !
 ! A15   A(7,6,17)             119.8797         estimate D2E/DX2                !
 ! A16   A(6,7,8)              119.9806         estimate D2E/DX2                !
 ! A17   A(6,7,18)             120.0916         estimate D2E/DX2                !
 ! A18   A(8,7,18)             119.9262         estimate D2E/DX2                !
 ! A19   A(3,8,7)              120.0295         estimate D2E/DX2                !
 ! A20   A(3,8,19)             120.1874         estimate D2E/DX2                !
 ! A21   A(7,8,19)             119.783          estimate D2E/DX2                !
 ! A22   A(2,9,10)             121.8193         estimate D2E/DX2                !
 ! A23   A(2,9,14)             118.3486         estimate D2E/DX2                !
 ! A24   A(10,9,14)            119.7874         estimate D2E/DX2                !
 ! A25   A(9,10,11)            117.7462         estimate D2E/DX2                !
 ! A26   A(9,10,20)            122.3666         estimate D2E/DX2                !
 ! A27   A(11,10,20)           119.877          estimate D2E/DX2                !
 ! A28   A(10,11,12)           123.7609         estimate D2E/DX2                !
 ! A29   A(10,11,21)           121.1056         estimate D2E/DX2                !
 ! A30   A(12,11,21)           115.1326         estimate D2E/DX2                !
 ! A31   A(11,12,13)           117.1153         estimate D2E/DX2                !
 ! A32   A(12,13,14)           123.6152         estimate D2E/DX2                !
 ! A33   A(12,13,22)           115.3183         estimate D2E/DX2                !
 ! A34   A(14,13,22)           121.0664         estimate D2E/DX2                !
 ! A35   A(9,14,13)            117.9447         estimate D2E/DX2                !
 ! A36   A(9,14,23)            121.369          estimate D2E/DX2                !
 ! A37   A(13,14,23)           120.6862         estimate D2E/DX2                !
 ! D1    D(1,2,3,4)            142.6256         estimate D2E/DX2                !
 ! D2    D(1,2,3,8)            -35.2188         estimate D2E/DX2                !
 ! D3    D(9,2,3,4)            -37.5059         estimate D2E/DX2                !
 ! D4    D(9,2,3,8)            144.6497         estimate D2E/DX2                !
 ! D5    D(1,2,9,10)           145.4958         estimate D2E/DX2                !
 ! D6    D(1,2,9,14)           -32.0674         estimate D2E/DX2                !
 ! D7    D(3,2,9,10)           -34.373          estimate D2E/DX2                !
 ! D8    D(3,2,9,14)           148.0638         estimate D2E/DX2                !
 ! D9    D(2,3,4,5)           -179.4976         estimate D2E/DX2                !
 ! D10   D(2,3,4,15)            -0.7841         estimate D2E/DX2                !
 ! D11   D(8,3,4,5)             -1.6838         estimate D2E/DX2                !
 ! D12   D(8,3,4,15)           177.0297         estimate D2E/DX2                !
 ! D13   D(2,3,8,7)            179.589          estimate D2E/DX2                !
 ! D14   D(2,3,8,19)            -0.3085         estimate D2E/DX2                !
 ! D15   D(4,3,8,7)              1.7057         estimate D2E/DX2                !
 ! D16   D(4,3,8,19)          -178.1919         estimate D2E/DX2                !
 ! D17   D(3,4,5,6)              0.5981         estimate D2E/DX2                !
 ! D18   D(3,4,5,16)           179.8976         estimate D2E/DX2                !
 ! D19   D(15,4,5,6)          -178.1437         estimate D2E/DX2                !
 ! D20   D(15,4,5,16)            1.1559         estimate D2E/DX2                !
 ! D21   D(4,5,6,7)              0.4723         estimate D2E/DX2                !
 ! D22   D(4,5,6,17)           179.6768         estimate D2E/DX2                !
 ! D23   D(16,5,6,7)          -178.8285         estimate D2E/DX2                !
 ! D24   D(16,5,6,17)            0.376          estimate D2E/DX2                !
 ! D25   D(5,6,7,8)             -0.453          estimate D2E/DX2                !
 ! D26   D(5,6,7,18)           179.0857         estimate D2E/DX2                !
 ! D27   D(17,6,7,8)          -179.6582         estimate D2E/DX2                !
 ! D28   D(17,6,7,18)           -0.1195         estimate D2E/DX2                !
 ! D29   D(6,7,8,3)             -0.6377         estimate D2E/DX2                !
 ! D30   D(6,7,8,19)           179.2603         estimate D2E/DX2                !
 ! D31   D(18,7,8,3)           179.8228         estimate D2E/DX2                !
 ! D32   D(18,7,8,19)           -0.2793         estimate D2E/DX2                !
 ! D33   D(2,9,10,11)         -179.2453         estimate D2E/DX2                !
 ! D34   D(2,9,10,20)           -0.4107         estimate D2E/DX2                !
 ! D35   D(14,9,10,11)          -1.7164         estimate D2E/DX2                !
 ! D36   D(14,9,10,20)         177.1182         estimate D2E/DX2                !
 ! D37   D(2,9,14,13)          179.3625         estimate D2E/DX2                !
 ! D38   D(2,9,14,23)           -0.5462         estimate D2E/DX2                !
 ! D39   D(10,9,14,13)           1.7483         estimate D2E/DX2                !
 ! D40   D(10,9,14,23)        -178.1604         estimate D2E/DX2                !
 ! D41   D(9,10,11,12)           0.334          estimate D2E/DX2                !
 ! D42   D(9,10,11,21)         179.9633         estimate D2E/DX2                !
 ! D43   D(20,10,11,12)       -178.5308         estimate D2E/DX2                !
 ! D44   D(20,10,11,21)          1.0985         estimate D2E/DX2                !
 ! D45   D(10,11,12,13)          0.9814         estimate D2E/DX2                !
 ! D46   D(21,11,12,13)       -178.6681         estimate D2E/DX2                !
 ! D47   D(11,12,13,14)         -0.9481         estimate D2E/DX2                !
 ! D48   D(11,12,13,22)        178.9009         estimate D2E/DX2                !
 ! D49   D(12,13,14,9)          -0.3979         estimate D2E/DX2                !
 ! D50   D(12,13,14,23)        179.5115         estimate D2E/DX2                !
 ! D51   D(22,13,14,9)         179.7615         estimate D2E/DX2                !
 ! D52   D(22,13,14,23)         -0.3291         estimate D2E/DX2                !
 --------------------------------------------------------------------------------
 Trust Radius=3.00D-01 FncErr=1.00D-07 GrdErr=1.00D-06 EigMax=2.50D+02 EigMin=1.00D-04
 Number of steps in this run=    123 maximum allowed number of steps=    138.
 GradGradGradGradGradGradGradGradGradGradGradGradGradGradGradGradGradGrad

                          Input orientation:                          
 ---------------------------------------------------------------------
 Center     Atomic      Atomic             Coordinates (Angstroms)
 Number     Number       Type             X           Y           Z
 ---------------------------------------------------------------------
      1          8           0        0.223046   -2.147120   -1.125476
      2          6           0        0.210288   -1.084984   -0.508892
      3          6           0       -1.081319   -0.387779   -0.289431
      4          6           0       -1.358610    0.285701    0.906546
      5          6           0       -2.590689    0.920410    1.077071
      6          6           0       -3.548175    0.873238    0.063324
      7          6           0       -3.282292    0.183962   -1.119773
      8          6           0       -2.052770   -0.452251   -1.294872
      9          6           0        1.489966   -0.530040   -0.004395
     10          6           0        1.726670    0.843370    0.046232
     11          6           0        2.956119    1.268074    0.517141
     12          7           0        3.934801    0.430532    0.921406
     13          6           0        3.686014   -0.894300    0.834982
     14          6           0        2.492421   -1.420363    0.378927
     15          1           0       -0.637867    0.308063    1.719733
     16          1           0       -2.810024    1.442947    2.005234
     17          1           0       -4.509110    1.363811    0.200328
     18          1           0       -4.034697    0.135217   -1.903173
     19          1           0       -1.853269   -0.999311   -2.214292
     20          1           0        0.994595    1.570876   -0.284577
     21          1           0        3.198720    2.325483    0.579244
     22          1           0        4.499795   -1.541399    1.150288
     23          1           0        2.346387   -2.494136    0.321775
 ---------------------------------------------------------------------
                    Distance matrix (angstroms):
                    1          2          3          4          5
     1  O    0.000000
     2  C    1.228198   0.000000
     3  C    2.344274   1.484084   0.000000
     4  C    3.542509   2.518667   1.400295   0.000000
     5  C    4.709359   3.792408   2.420100   1.396407   0.000000
     6  C    4.975733   4.276460   2.792844   2.418764   1.395237
     7  C    4.209676   3.765835   2.420875   2.795867   2.418014
     8  C    2.842642   2.477811   1.399566   2.423360   2.792789
     9  C    2.340268   1.483259   2.590944   3.099941   4.463756
    10  C    3.546381   2.515179   3.084348   3.251167   4.439387
    11  C    4.672411   3.758885   4.437715   4.442249   5.585828
    12  N    4.960962   4.267849   5.224674   5.295413   6.545703
    13  C    4.171942   3.731358   4.924260   5.181289   6.538255
    14  C    2.818061   2.471605   3.779491   4.244935   5.639559
    15  H    3.855426   2.761651   2.172000   1.086850   2.145110
    16  H    5.647074   4.672638   3.406680   2.157067   1.087492
    17  H    6.039677   5.363982   3.880423   3.403926   2.155370
    18  H    4.893082   4.631718   3.405896   3.883118   3.403460
    19  H    2.610377   2.678432   2.162167   3.411096   3.881003
    20  H    3.889202   2.778317   2.854080   2.933943   3.889917
    21  H    5.636034   4.663266   5.141510   5.003708   5.978237
    22  H    4.882272   4.621803   5.878134   6.141548   7.506053
    23  H    2.592978   2.690471   4.069334   4.668667   6.050150
                    6          7          8          9         10
     6  C    0.000000
     7  C    1.394817   0.000000
     8  C    2.416165   1.395404   0.000000
     9  C    5.230358   4.952607   3.771254   0.000000
    10  C    5.274957   5.184987   4.214423   1.394578   0.000000
    11  C    6.532051   6.540073   5.597489   2.377986   1.383356
    12  N    7.545013   7.504241   6.445324   2.785143   2.410852
    13  C    7.486864   7.317172   6.137208   2.379047   2.735078
    14  C    6.469081   6.177967   4.939393   1.394463   2.412788
    15  H    3.396028   3.882162   3.415827   2.864037   2.945878
    16  H    2.154170   3.402021   3.880194   5.140156   4.977828
    17  H    1.087579   2.154018   3.401075   6.294243   6.259358
    18  H    2.156036   1.087292   2.154805   5.879611   6.123317
    19  H    3.400982   2.154115   1.088305   4.034982   4.617511
    20  H    4.609175   4.573056   3.794756   2.176636   1.083805
    21  H    6.920678   7.033938   6.229467   3.378533   2.155851
    22  H    8.472413   8.287999   7.078217   3.378640   3.820508
    23  H    6.793516   6.397835   5.112282   2.167376   3.405719
                   11         12         13         14         15
    11  C    0.000000
    12  N    1.350083   0.000000
    13  C    2.304264   1.350757   0.000000
    14  C    2.731632   2.408434   1.381808   0.000000
    15  H    3.909550   4.643449   4.574320   3.818890   0.000000
    16  H    5.957634   6.905963   7.002194   6.241742   2.467334
    17  H    7.472562   8.525878   8.524195   7.536906   4.290655
    18  H    7.484170   8.460399   8.256317   7.087389   4.969283
    19  H    5.977623   6.736379   6.323983   5.078099   4.320067
    20  H    2.140565   3.376328   3.817622   3.410459   2.876958
    21  H    1.086658   2.061487   3.266475   3.817112   4.482198
    22  H    3.267560   2.064005   1.086460   2.153880   5.490023
    23  H    3.816303   3.381760   2.148827   1.085164   4.325781
                   16         17         18         19         20
    16  H    0.000000
    17  H    2.480089   0.000000
    18  H    4.299491   2.481779   0.000000
    19  H    4.968340   4.297467   2.478422   0.000000
    20  H    4.442378   5.528904   5.474920   4.294181   0.000000
    21  H    6.238375   7.776827   7.954997   6.661883   2.484710
    22  H    7.941707   9.513308   9.218038   7.209416   4.902195
    23  H    6.702479   7.867423   7.251353   5.128669   4.326584
                   21         22         23
    21  H    0.000000
    22  H    4.119668   0.000000
    23  H    4.901172   2.496259   0.000000
 Stoichiometry    C12H9NO
 Framework group  C1[X(C12H9NO)]
 Deg. of freedom    63
 Full point group                 C1      NOp   1
 Largest Abelian subgroup         C1      NOp   1
 Largest concise Abelian subgroup C1      NOp   1
                         Standard orientation:                         
 ---------------------------------------------------------------------
 Center     Atomic      Atomic             Coordinates (Angstroms)
 Number     Number       Type             X           Y           Z
 ---------------------------------------------------------------------
      1          8           0        0.034813    2.305430   -0.047221
      2          6           0        0.020577    1.077531   -0.024178
      3          6           0       -1.280917    0.365246   -0.059830
      4          6           0       -1.443863   -0.832138   -0.767323
      5          6           0       -2.688268   -1.465481   -0.784181
      6          6           0       -3.770076   -0.900349   -0.108159
      7          6           0       -3.615303    0.303818    0.578530
      8          6           0       -2.373933    0.940817    0.598060
      9          6           0        1.307951    0.343777    0.041613
     10          6           0        1.435772   -0.855532    0.741732
     11          6           0        2.679610   -1.460654    0.760919
     12          7           0        3.770394   -0.953153    0.148254
     13          6           0        3.621689    0.223225   -0.498712
     14          6           0        2.423625    0.907303   -0.576641
     15          1           0       -0.621503   -1.272334   -1.325172
     16          1           0       -2.818798   -2.394632   -1.333980
     17          1           0       -4.739703   -1.392586   -0.126971
     18          1           0       -4.462608    0.751017    1.092624
     19          1           0       -2.259749    1.886340    1.124708
     20          1           0        0.607601   -1.306695    1.275791
     21          1           0        2.840800   -2.395916    1.290191
     22          1           0        4.521739    0.613902   -0.965270
     23          1           0        2.359769    1.854165   -1.102907
 ---------------------------------------------------------------------
 Rotational constants (GHZ):           1.7119980           0.4104953           0.3569967
 Standard basis: 6-31G(d) (6D, 7F)
 There are   228 symmetry adapted cartesian basis functions of A   symmetry.
 There are   228 symmetry adapted basis functions of A   symmetry.
   228 basis functions,   428 primitive gaussians,   228 cartesian basis functions
    48 alpha electrons       48 beta electrons
       nuclear repulsion energy       779.1501204600 Hartrees.
 NAtoms=   23 NActive=   23 NUniq=   23 SFac= 1.00D+00 NAtFMM=   60 NAOKFM=F Big=F
 Integral buffers will be    131072 words long.
 Raffenetti 2 integral format.
 Two-electron integral symmetry is turned on.
 One-electron integrals computed using PRISM.
 NBasis=   228 RedAO= T EigKep=  4.72D-04  NBF=   228
 NBsUse=   228 1.00D-06 EigRej= -1.00D+00 NBFU=   228
 ExpMin= 1.61D-01 ExpMax= 5.48D+03 ExpMxC= 8.25D+02 IAcc=3 IRadAn=         5 AccDes= 0.00D+00
 Harris functional with IExCor=  402 and IRadAn=       5 diagonalized for initial guess.
 HarFok:  IExCor=  402 AccDes= 0.00D+00 IRadAn=         5 IDoV= 1 UseB2=F ITyADJ=14
 ICtDFT=  3500011 ScaDFX=  1.000000  1.000000  1.000000  1.000000
 FoFCou: FMM=F IPFlag=           0 FMFlag=      100000 FMFlg1=           0
         NFxFlg=           0 DoJE=T BraDBF=F KetDBF=T FulRan=T
         wScrn=  0.000000 ICntrl=       500 IOpCl=  0 I1Cent=   200000004 NGrid=           0
         NMat0=    1 NMatS0=      1 NMatT0=    0 NMatD0=    1 NMtDS0=    0 NMtDT0=    0
 Petite list used in FoFCou.
 Requested convergence on RMS density matrix=1.00D-08 within 128 cycles.
 Requested convergence on MAX density matrix=1.00D-06.
 Requested convergence on             energy=1.00D-06.
 No special actions if energy rises.
 Integral accuracy reduced to 1.0D-05 until final iterations.
 Initial convergence to 1.0D-05 achieved.  Increase integral accuracy.
 SCF Done:  E(RB3LYP) =  -592.663632074     A.U. after   15 cycles
            NFock= 15  Conv=0.74D-08     -V/T= 2.0094

 **********************************************************************

            Population analysis using the SCF density.

 **********************************************************************

 Orbital symmetries:
       Occupied  (A) (A) (A) (A) (A) (A) (A) (A) (A) (A) (A) (A)
                 (A) (A) (A) (A) (A) (A) (A) (A) (A) (A) (A) (A)
                 (A) (A) (A) (A) (A) (A) (A) (A) (A) (A) (A) (A)
                 (A) (A) (A) (A) (A) (A) (A) (A) (A) (A) (A) (A)
       Virtual   (A) (A) (A) (A) (A) (A) (A) (A) (A) (A) (A) (A)
                 (A) (A) (A) (A) (A) (A) (A) (A) (A) (A) (A) (A)
                 (A) (A) (A) (A) (A) (A) (A) (A) (A) (A) (A) (A)
                 (A) (A) (A) (A) (A) (A) (A) (A) (A) (A) (A) (A)
                 (A) (A) (A) (A) (A) (A) (A) (A) (A) (A) (A) (A)
                 (A) (A) (A) (A) (A) (A) (A) (A) (A) (A) (A) (A)
                 (A) (A) (A) (A) (A) (A) (A) (A) (A) (A) (A) (A)
                 (A) (A) (A) (A) (A) (A) (A) (A) (A) (A) (A) (A)
                 (A) (A) (A) (A) (A) (A) (A) (A) (A) (A) (A) (A)
                 (A) (A) (A) (A) (A) (A) (A) (A) (A) (A) (A) (A)
                 (A) (A) (A) (A) (A) (A) (A) (A) (A) (A) (A) (A)
                 (A) (A) (A) (A) (A) (A) (A) (A) (A) (A) (A) (A)
                 (A) (A) (A) (A) (A) (A) (A) (A) (A) (A) (A) (A)
                 (A) (A) (A) (A) (A) (A) (A) (A) (A) (A) (A) (A)
                 (A) (A) (A) (A) (A) (A) (A) (A) (A) (A) (A) (A)
 The electronic state is 1-A.
 Alpha  occ. eigenvalues --  -19.14308 -14.33964 -10.28200 -10.23061 -10.22904
 Alpha  occ. eigenvalues --  -10.22002 -10.21065 -10.20956 -10.20901 -10.20716
 Alpha  occ. eigenvalues --  -10.20666 -10.20540 -10.20521 -10.20385  -1.04222
 Alpha  occ. eigenvalues --   -0.94402  -0.86969  -0.82388  -0.77510  -0.76868
 Alpha  occ. eigenvalues --   -0.75921  -0.67698  -0.64006  -0.62678  -0.61676
 Alpha  occ. eigenvalues --   -0.57163  -0.54038  -0.50237  -0.49334  -0.47863
 Alpha  occ. eigenvalues --   -0.46714  -0.45752  -0.44112  -0.44090  -0.43517
 Alpha  occ. eigenvalues --   -0.42141  -0.40811  -0.39108  -0.37561  -0.37018
 Alpha  occ. eigenvalues --   -0.36062  -0.35636  -0.29209  -0.27520  -0.26962
 Alpha  occ. eigenvalues --   -0.26608  -0.26237  -0.25011
 Alpha virt. eigenvalues --   -0.07549  -0.02807  -0.02098  -0.00991   0.04201
 Alpha virt. eigenvalues --    0.08534   0.10651   0.13206   0.13390   0.13647
 Alpha virt. eigenvalues --    0.14766   0.16075   0.16574   0.17517   0.17597
 Alpha virt. eigenvalues --    0.18364   0.21562   0.25071   0.26851   0.28446
 Alpha virt. eigenvalues --    0.29682   0.29749   0.30363   0.32593   0.33761
 Alpha virt. eigenvalues --    0.37256   0.39638   0.44672   0.45853   0.47983
 Alpha virt. eigenvalues --    0.49555   0.51071   0.51997   0.52601   0.54165
 Alpha virt. eigenvalues --    0.55023   0.56369   0.56860   0.57341   0.57864
 Alpha virt. eigenvalues --    0.58519   0.58975   0.59582   0.60337   0.60488
 Alpha virt. eigenvalues --    0.61160   0.62125   0.62638   0.63158   0.64955
 Alpha virt. eigenvalues --    0.66125   0.67007   0.69888   0.71958   0.73439
 Alpha virt. eigenvalues --    0.75056   0.77210   0.80734   0.81208   0.82148
 Alpha virt. eigenvalues --    0.82501   0.82765   0.84247   0.84914   0.85900
 Alpha virt. eigenvalues --    0.86048   0.86911   0.89211   0.89519   0.91957
 Alpha virt. eigenvalues --    0.93157   0.94682   0.95880   0.98251   0.99992
 Alpha virt. eigenvalues --    1.01904   1.03550   1.07129   1.07504   1.10189
 Alpha virt. eigenvalues --    1.12151   1.12735   1.13745   1.16532   1.17229
 Alpha virt. eigenvalues --    1.20914   1.22033   1.23966   1.25320   1.26492
 Alpha virt. eigenvalues --    1.29507   1.35972   1.40426   1.41659   1.42568
 Alpha virt. eigenvalues --    1.43739   1.44335   1.46964   1.47701   1.48498
 Alpha virt. eigenvalues --    1.49219   1.49829   1.50358   1.51715   1.53051
 Alpha virt. eigenvalues --    1.63923   1.68570   1.74551   1.75940   1.77151
 Alpha virt. eigenvalues --    1.77380   1.79206   1.80607   1.83842   1.86587
 Alpha virt. eigenvalues --    1.88077   1.89597   1.90733   1.94911   1.96359
 Alpha virt. eigenvalues --    1.98192   2.01250   2.02592   2.04675   2.05336
 Alpha virt. eigenvalues --    2.09983   2.12951   2.13311   2.13742   2.14846
 Alpha virt. eigenvalues --    2.15874   2.17196   2.18532   2.25281   2.28290
 Alpha virt. eigenvalues --    2.28912   2.29593   2.30242   2.31889   2.33459
 Alpha virt. eigenvalues --    2.36286   2.39129   2.47792   2.51608   2.55662
 Alpha virt. eigenvalues --    2.56813   2.58344   2.59238   2.62555   2.64124
 Alpha virt. eigenvalues --    2.67352   2.68147   2.69101   2.72842   2.73095
 Alpha virt. eigenvalues --    2.73571   2.75188   2.80643   2.83610   2.89385
 Alpha virt. eigenvalues --    2.96289   2.99891   3.11857   3.16169   3.38357
 Alpha virt. eigenvalues --    3.41884   3.98390   4.02777   4.07609   4.09736
 Alpha virt. eigenvalues --    4.10182   4.13748   4.15191   4.24528   4.30473
 Alpha virt. eigenvalues --    4.31900   4.34394   4.44891   4.62262   4.72440
          Condensed to atoms (all electrons):
               1          2          3          4          5          6
     1  O    8.062754   0.552958  -0.096919   0.001831  -0.000076  -0.000009
     2  C    0.552958   4.725597   0.291357  -0.044735   0.004484   0.000411
     3  C   -0.096919   0.291357   4.971228   0.516041  -0.016338  -0.034608
     4  C    0.001831  -0.044735   0.516041   4.987004   0.521315  -0.037796
     5  C   -0.000076   0.004484  -0.016338   0.521315   4.864583   0.550813
     6  C   -0.000009   0.000411  -0.034608  -0.037796   0.550813   4.846955
     7  C    0.000669   0.005434  -0.020209  -0.042364  -0.026678   0.541250
     8  C    0.003090  -0.024879   0.496978  -0.056858  -0.042062  -0.033605
     9  C   -0.097713   0.275670  -0.112163  -0.005882   0.000098  -0.000007
    10  C    0.002207  -0.046068  -0.004281  -0.003019  -0.000087  -0.000003
    11  C   -0.000097   0.005151   0.000089   0.000017  -0.000011  -0.000000
    12  N   -0.000003   0.000250  -0.000004  -0.000002  -0.000000   0.000000
    13  C    0.000667   0.006199  -0.000113  -0.000013   0.000000   0.000000
    14  C    0.003975  -0.028028   0.008430   0.000208   0.000012   0.000000
    15  H    0.000030  -0.007868  -0.043422   0.355496  -0.041090   0.004528
    16  H    0.000001  -0.000141   0.003638  -0.039275   0.358913  -0.042253
    17  H    0.000000   0.000005   0.000537   0.005019  -0.042699   0.360150
    18  H    0.000002  -0.000147   0.003804   0.000791   0.004537  -0.043065
    19  H    0.009318  -0.007087  -0.045178   0.005639   0.000292   0.004487
    20  H    0.000032  -0.007829   0.006916   0.003673   0.000121  -0.000013
    21  H    0.000001  -0.000116   0.000001  -0.000005   0.000000   0.000000
    22  H   -0.000000  -0.000117   0.000002   0.000000   0.000000   0.000000
    23  H    0.010320  -0.007424   0.000613  -0.000028   0.000000   0.000000
               7          8          9         10         11         12
     1  O    0.000669   0.003090  -0.097713   0.002207  -0.000097  -0.000003
     2  C    0.005434  -0.024879   0.275670  -0.046068   0.005151   0.000250
     3  C   -0.020209   0.496978  -0.112163  -0.004281   0.000089  -0.000004
     4  C   -0.042364  -0.056858  -0.005882  -0.003019   0.000017  -0.000002
     5  C   -0.026678  -0.042062   0.000098  -0.000087  -0.000011  -0.000000
     6  C    0.541250  -0.033605  -0.000007  -0.000003  -0.000000   0.000000
     7  C    4.889805   0.507529  -0.000102  -0.000017   0.000000   0.000000
     8  C    0.507529   4.961155   0.008118   0.000204   0.000012   0.000000
     9  C   -0.000102   0.008118   4.993636   0.509407  -0.011992  -0.043899
    10  C   -0.000017   0.000204   0.509407   5.083558   0.459400  -0.031031
    11  C    0.000000   0.000012  -0.011992   0.459400   4.808424   0.465348
    12  N    0.000000   0.000000  -0.043899  -0.031031   0.465348   6.683088
    13  C   -0.000000   0.000001  -0.015508  -0.042936  -0.065210   0.453868
    14  C    0.000001  -0.000243   0.484782  -0.052620  -0.043096  -0.026872
    15  H    0.000321   0.005484   0.006442   0.003113   0.000094  -0.000011
    16  H    0.004517   0.000815   0.000006  -0.000006   0.000000   0.000000
    17  H   -0.042792   0.004625  -0.000000   0.000000   0.000000  -0.000000
    18  H    0.359902  -0.039087   0.000002  -0.000000   0.000000   0.000000
    19  H   -0.042596   0.359388   0.000666  -0.000034   0.000001   0.000000
    20  H   -0.000018  -0.000215  -0.040804   0.346309  -0.035316   0.004461
    21  H   -0.000000  -0.000000   0.002962  -0.063406   0.378990  -0.052917
    22  H    0.000000  -0.000000   0.003167   0.000477   0.005478  -0.053193
    23  H   -0.000000  -0.000014  -0.043602   0.006351   0.000017   0.004339
              13         14         15         16         17         18
     1  O    0.000667   0.003975   0.000030   0.000001   0.000000   0.000002
     2  C    0.006199  -0.028028  -0.007868  -0.000141   0.000005  -0.000147
     3  C   -0.000113   0.008430  -0.043422   0.003638   0.000537   0.003804
     4  C   -0.000013   0.000208   0.355496  -0.039275   0.005019   0.000791
     5  C    0.000000   0.000012  -0.041090   0.358913  -0.042699   0.004537
     6  C    0.000000   0.000000   0.004528  -0.042253   0.360150  -0.043065
     7  C   -0.000000   0.000001   0.000321   0.004517  -0.042792   0.359902
     8  C    0.000001  -0.000243   0.005484   0.000815   0.004625  -0.039087
     9  C   -0.015508   0.484782   0.006442   0.000006  -0.000000   0.000002
    10  C   -0.042936  -0.052620   0.003113  -0.000006   0.000000  -0.000000
    11  C   -0.065210  -0.043096   0.000094   0.000000   0.000000   0.000000
    12  N    0.453868  -0.026872  -0.000011   0.000000  -0.000000   0.000000
    13  C    4.828762   0.452872  -0.000007  -0.000000  -0.000000   0.000000
    14  C    0.452872   5.055769  -0.000220  -0.000000   0.000000  -0.000000
    15  H   -0.000007  -0.000220   0.574824  -0.005079  -0.000171   0.000016
    16  H   -0.000000  -0.000000  -0.005079   0.585191  -0.005539  -0.000175
    17  H   -0.000000   0.000000  -0.000171  -0.005539   0.587047  -0.005486
    18  H    0.000000  -0.000000   0.000016  -0.000175  -0.005486   0.583086
    19  H   -0.000000  -0.000017  -0.000135   0.000017  -0.000162  -0.005004
    20  H   -0.000049   0.006333  -0.000415  -0.000004   0.000000  -0.000000
    21  H    0.005519   0.000499  -0.000004  -0.000000   0.000000  -0.000000
    22  H    0.378952  -0.061464  -0.000000  -0.000000   0.000000  -0.000000
    23  H   -0.036714   0.350854  -0.000013  -0.000000   0.000000  -0.000000
              19         20         21         22         23
     1  O    0.009318   0.000032   0.000001  -0.000000   0.010320
     2  C   -0.007087  -0.007829  -0.000116  -0.000117  -0.007424
     3  C   -0.045178   0.006916   0.000001   0.000002   0.000613
     4  C    0.005639   0.003673  -0.000005   0.000000  -0.000028
     5  C    0.000292   0.000121   0.000000   0.000000   0.000000
     6  C    0.004487  -0.000013   0.000000   0.000000   0.000000
     7  C   -0.042596  -0.000018  -0.000000   0.000000  -0.000000
     8  C    0.359388  -0.000215  -0.000000  -0.000000  -0.000014
     9  C    0.000666  -0.040804   0.002962   0.003167  -0.043602
    10  C   -0.000034   0.346309  -0.063406   0.000477   0.006351
    11  C    0.000001  -0.035316   0.378990   0.005478   0.000017
    12  N    0.000000   0.004461  -0.052917  -0.053193   0.004339
    13  C   -0.000000  -0.000049   0.005519   0.378952  -0.036714
    14  C   -0.000017   0.006333   0.000499  -0.061464   0.350854
    15  H   -0.000135  -0.000415  -0.000004  -0.000000  -0.000013
    16  H    0.000017  -0.000004  -0.000000  -0.000000  -0.000000
    17  H   -0.000162   0.000000   0.000000   0.000000   0.000000
    18  H   -0.005004  -0.000000  -0.000000  -0.000000  -0.000000
    19  H    0.560531  -0.000012  -0.000000  -0.000000  -0.000003
    20  H   -0.000012   0.562587  -0.001721   0.000025  -0.000074
    21  H   -0.000000  -0.001721   0.582458  -0.000174   0.000026
    22  H   -0.000000   0.000025  -0.000174   0.579420  -0.001803
    23  H   -0.000003  -0.000074   0.000026  -0.001803   0.550926
 Mulliken charges:
               1
     1  O   -0.453036
     2  C    0.306922
     3  C    0.073599
     4  C   -0.167058
     5  C   -0.136128
     6  C   -0.117234
     7  C   -0.134652
     8  C   -0.150436
     9  C    0.086717
    10  C   -0.167518
    11  C    0.032700
    12  N   -0.403420
    13  C    0.033710
    14  C   -0.151174
    15  H    0.148089
    16  H    0.139377
    17  H    0.139467
    18  H    0.140823
    19  H    0.159889
    20  H    0.156013
    21  H    0.147888
    22  H    0.149232
    23  H    0.166229
 Sum of Mulliken charges =  -0.00000
 Mulliken charges with hydrogens summed into heavy atoms:
               1
     1  O   -0.453036
     2  C    0.306922
     3  C    0.073599
     4  C   -0.018969
     5  C    0.003249
     6  C    0.022233
     7  C    0.006172
     8  C    0.009453
     9  C    0.086717
    10  C   -0.011504
    11  C    0.180588
    12  N   -0.403420
    13  C    0.182942
    14  C    0.015055
 Electronic spatial extent (au):  <R**2>=           3027.2942
 Charge=             -0.0000 electrons
 Dipole moment (field-independent basis, Debye):
    X=             -2.4518    Y=             -1.9294    Z=             -0.0199  Tot=              3.1200
 Quadrupole moment (field-independent basis, Debye-Ang):
   XX=            -77.9347   YY=            -82.1226   ZZ=            -77.4365
   XY=              6.1120   XZ=             -3.5854   YZ=              0.2852
 Traceless Quadrupole moment (field-independent basis, Debye-Ang):
   XX=              1.2299   YY=             -2.9580   ZZ=              1.7281
   XY=              6.1120   XZ=             -3.5854   YZ=              0.2852
 Octapole moment (field-independent basis, Debye-Ang**2):
  XXX=            -75.0162  YYY=            -16.8248  ZZZ=              0.3447  XYY=             -4.8003
  XXY=             23.6138  XXZ=             -3.4767  XZZ=              5.1389  YZZ=              2.0209
  YYZ=              0.7231  XYZ=            -15.7719
 Hexadecapole moment (field-independent basis, Debye-Ang**3):
 XXXX=          -3167.2360 YYYY=           -709.7050 ZZZZ=           -243.1693 XXXY=            153.3614
 XXXZ=            -89.3824 YYYX=              2.9049 YYYZ=              0.1918 ZZZX=             -3.3019
 ZZZY=             -0.9176 XXYY=           -625.8899 XXZZ=           -568.4932 YYZZ=           -137.3537
 XXYZ=              4.6760 YYXZ=              7.8958 ZZXY=             -3.8595
 N-N= 7.791501204600D+02 E-N=-2.934396832813D+03  KE= 5.871329398792D+02
 Calling FoFJK, ICntrl=      2127 FMM=F ISym2X=0 I1Cent= 0 IOpClX= 0 NMat=1 NMatS=1 NMatT=0.
 ***** Axes restored to original set *****
 -------------------------------------------------------------------
 Center     Atomic                   Forces (Hartrees/Bohr)
 Number     Number              X              Y              Z
 -------------------------------------------------------------------
      1        8           0.001259928    0.000562234   -0.000576231
      2        6          -0.005719165   -0.016669945   -0.009511817
      3        6           0.002217032    0.004634383    0.001731407
      4        6          -0.004303645    0.005808899    0.002055247
      5        6          -0.000192485   -0.001277934    0.001682106
      6        6          -0.002098817    0.001274539    0.001328847
      7        6           0.002092960   -0.002182985   -0.001753358
      8        6          -0.007650805    0.000488468   -0.003060279
      9        6          -0.006461513    0.000696072    0.001205804
     10        6          -0.000962989    0.000274704    0.001058732
     11        6           0.018701304   -0.004626329    0.005741450
     12        7          -0.007145005   -0.001475033   -0.003083070
     13        6           0.009006763    0.014395121    0.003330840
     14        6           0.000891192   -0.002187748   -0.000458517
     15        1           0.001769144   -0.000030097   -0.002379981
     16        1           0.000493812   -0.000650833   -0.000281719
     17        1           0.000643379    0.000203536   -0.000028630
     18        1           0.000647000    0.000240866    0.000154819
     19        1           0.002271096    0.000564646    0.002770850
     20        1          -0.002679082   -0.001268419    0.000518961
     21        1          -0.000613873    0.001484059   -0.000194063
     22        1           0.000514506   -0.001261727    0.000641776
     23        1          -0.002680736    0.001003524   -0.000893174
 -------------------------------------------------------------------
 Cartesian Forces:  Max     0.018701304 RMS     0.004578308

 GradGradGradGradGradGradGradGradGradGradGradGradGradGradGradGradGradGrad
 Berny optimization.
 FormGI is forming the generalized inverse of G from B-inverse, IUseBI=4.
 Internal  Forces:  Max     0.012702703 RMS     0.003103319
 Search for a local minimum.
 Step number   1 out of a maximum of  123
 All quantities printed in internal units (Hartrees-Bohrs-Radians)
 Mixed Optimization -- RFO/linear search
 Second derivative matrix not updated -- first step.
 ITU=  0
     Eigenvalues ---    0.00976   0.00982   0.00987   0.01753   0.01811
     Eigenvalues ---    0.02097   0.02111   0.02122   0.02135   0.02144
     Eigenvalues ---    0.02152   0.02153   0.02155   0.02181   0.02228
     Eigenvalues ---    0.02248   0.02291   0.02321   0.02333   0.02340
     Eigenvalues ---    0.15996   0.15997   0.15998   0.15999   0.16000
     Eigenvalues ---    0.16000   0.16000   0.16000   0.16000   0.21998
     Eigenvalues ---    0.21998   0.22000   0.22824   0.23476   0.23878
     Eigenvalues ---    0.24977   0.24982   0.25000   0.25000   0.34106
     Eigenvalues ---    0.34199   0.35009   0.35094   0.35104   0.35127
     Eigenvalues ---    0.35179   0.35202   0.35225   0.35378   0.35538
     Eigenvalues ---    0.41914   0.41938   0.43584   0.44258   0.45757
     Eigenvalues ---    0.46078   0.46299   0.46438   0.47117   0.48637
     Eigenvalues ---    0.53063   0.54279   0.91841
 RFO step:  Lambda=-5.18992078D-03 EMin= 9.76480051D-03
 Linear search not attempted -- first point.
 Iteration  1 RMS(Cart)=  0.12861382 RMS(Int)=  0.00397254
 Iteration  2 RMS(Cart)=  0.00776895 RMS(Int)=  0.00008064
 Iteration  3 RMS(Cart)=  0.00002162 RMS(Int)=  0.00007983
 Iteration  4 RMS(Cart)=  0.00000000 RMS(Int)=  0.00007983
 Variable       Old X    -DE/DX   Delta X   Delta X   Delta X     New X
                                 (Linear)    (Quad)   (Total)
    R1        2.32096  -0.00018   0.00000  -0.00020  -0.00020   2.32076
    R2        2.80451   0.00817   0.00000   0.02359   0.02359   2.82810
    R3        2.80295   0.01270   0.00000   0.03659   0.03659   2.83954
    R4        2.64617   0.00260   0.00000   0.00568   0.00565   2.65182
    R5        2.64480   0.00232   0.00000   0.00502   0.00502   2.64981
    R6        2.63883  -0.00065   0.00000  -0.00136  -0.00138   2.63745
    R7        2.05385  -0.00061   0.00000  -0.00170  -0.00170   2.05215
    R8        2.63662   0.00093   0.00000   0.00197   0.00198   2.63860
    R9        2.05506  -0.00065   0.00000  -0.00183  -0.00183   2.05323
   R10        2.63582   0.00271   0.00000   0.00574   0.00577   2.64159
   R11        2.05523  -0.00048   0.00000  -0.00135  -0.00135   2.05388
   R12        2.63693  -0.00170   0.00000  -0.00365  -0.00363   2.63330
   R13        2.05468  -0.00057   0.00000  -0.00160  -0.00160   2.05309
   R14        2.05660  -0.00221   0.00000  -0.00622  -0.00622   2.05038
   R15        2.63537   0.00380   0.00000   0.00911   0.00913   2.64450
   R16        2.63515   0.00339   0.00000   0.00824   0.00827   2.64342
   R17        2.61416   0.01204   0.00000   0.02454   0.02452   2.63869
   R18        2.04809   0.00080   0.00000   0.00222   0.00222   2.05031
   R19        2.55129  -0.00977   0.00000  -0.01846  -0.01848   2.53281
   R20        2.05349   0.00130   0.00000   0.00363   0.00363   2.05711
   R21        2.55256  -0.00793   0.00000  -0.01518  -0.01520   2.53736
   R22        2.61124   0.01106   0.00000   0.02239   0.02240   2.63363
   R23        2.05311   0.00132   0.00000   0.00370   0.00370   2.05681
   R24        2.05066  -0.00059   0.00000  -0.00163  -0.00163   2.04903
    A1        2.08237   0.00518   0.00000   0.02030   0.02024   2.10260
    A2        2.07755   0.00251   0.00000   0.00981   0.00975   2.08731
    A3        2.12327  -0.00769   0.00000  -0.03015  -0.03020   2.09306
    A4        2.12303   0.00175   0.00000   0.00680   0.00684   2.12987
    A5        2.06714   0.00038   0.00000   0.00140   0.00145   2.06859
    A6        2.09241  -0.00214   0.00000  -0.00849  -0.00862   2.08379
    A7        2.09166   0.00155   0.00000   0.00691   0.00678   2.09844
    A8        2.11485  -0.00329   0.00000  -0.01871  -0.01865   2.09620
    A9        2.07646   0.00174   0.00000   0.01170   0.01176   2.08823
   A10        2.09601  -0.00029   0.00000  -0.00126  -0.00140   2.09461
   A11        2.09507  -0.00038   0.00000  -0.00243  -0.00244   2.09263
   A12        2.09204   0.00067   0.00000   0.00389   0.00389   2.09593
   A13        2.09692  -0.00050   0.00000  -0.00232  -0.00238   2.09454
   A14        2.09389   0.00003   0.00000  -0.00012  -0.00012   2.09377
   A15        2.09229   0.00047   0.00000   0.00259   0.00258   2.09488
   A16        2.09406   0.00038   0.00000   0.00146   0.00144   2.09549
   A17        2.09599  -0.00000   0.00000   0.00039   0.00041   2.09640
   A18        2.09311  -0.00038   0.00000  -0.00186  -0.00185   2.09126
   A19        2.09491   0.00101   0.00000   0.00434   0.00427   2.09918
   A20        2.09767  -0.00346   0.00000  -0.02004  -0.02001   2.07765
   A21        2.09061   0.00245   0.00000   0.01570   0.01574   2.10634
   A22        2.12615   0.00484   0.00000   0.01717   0.01717   2.14332
   A23        2.06557   0.00443   0.00000   0.01556   0.01555   2.08112
   A24        2.09068  -0.00927   0.00000  -0.03290  -0.03291   2.05777
   A25        2.05506   0.00328   0.00000   0.01636   0.01631   2.07137
   A26        2.13570  -0.00421   0.00000  -0.02375  -0.02373   2.11197
   A27        2.09225   0.00093   0.00000   0.00739   0.00741   2.09966
   A28        2.16004   0.00144   0.00000   0.00389   0.00375   2.16378
   A29        2.11369  -0.00171   0.00000  -0.00790  -0.00790   2.10579
   A30        2.00944   0.00027   0.00000   0.00411   0.00409   2.01354
   A31        2.04405  -0.00027   0.00000  -0.00737  -0.00751   2.03654
   A32        2.15749   0.00209   0.00000   0.00668   0.00663   2.16412
   A33        2.01268  -0.00044   0.00000   0.00034   0.00036   2.01305
   A34        2.11301  -0.00165   0.00000  -0.00702  -0.00700   2.10601
   A35        2.05852   0.00275   0.00000   0.01399   0.01398   2.07250
   A36        2.11829  -0.00439   0.00000  -0.02523  -0.02523   2.09306
   A37        2.10637   0.00164   0.00000   0.01124   0.01124   2.11761
    D1        2.48929   0.00207   0.00000   0.14165   0.14165   2.63093
    D2       -0.61468   0.00231   0.00000   0.15076   0.15083  -0.46386
    D3       -0.65460   0.00177   0.00000   0.12185   0.12178  -0.53282
    D4        2.52461   0.00201   0.00000   0.13096   0.13096   2.65558
    D5        2.53938   0.00109   0.00000   0.07987   0.07982   2.61920
    D6       -0.55968   0.00140   0.00000   0.08542   0.08554  -0.47414
    D7       -0.59992   0.00139   0.00000   0.09961   0.09949  -0.50043
    D8        2.58420   0.00169   0.00000   0.10516   0.10522   2.68942
    D9       -3.13282   0.00113   0.00000   0.04398   0.04400  -3.08882
   D10       -0.01369   0.00103   0.00000   0.03914   0.03915   0.02547
   D11       -0.02939   0.00094   0.00000   0.03496   0.03496   0.00557
   D12        3.08975   0.00084   0.00000   0.03012   0.03011   3.11986
   D13        3.13442  -0.00055   0.00000  -0.02320  -0.02313   3.11129
   D14       -0.00538  -0.00050   0.00000  -0.02070  -0.02067  -0.02605
   D15        0.02977  -0.00041   0.00000  -0.01459  -0.01453   0.01524
   D16       -3.11004  -0.00036   0.00000  -0.01209  -0.01207  -3.12211
   D17        0.01044  -0.00085   0.00000  -0.03241  -0.03248  -0.02204
   D18        3.13981  -0.00037   0.00000  -0.01395  -0.01406   3.12574
   D19       -3.10919  -0.00069   0.00000  -0.02729  -0.02726  -3.13646
   D20        0.02017  -0.00021   0.00000  -0.00883  -0.00885   0.01133
   D21        0.00824   0.00026   0.00000   0.00957   0.00951   0.01775
   D22        3.13595   0.00057   0.00000   0.02159   0.02156  -3.12567
   D23       -3.12115  -0.00021   0.00000  -0.00882  -0.00890  -3.13004
   D24        0.00656   0.00010   0.00000   0.00321   0.00316   0.00972
   D25       -0.00791   0.00028   0.00000   0.01095   0.01093   0.00302
   D26        3.12564   0.00025   0.00000   0.00988   0.00992   3.13555
   D27       -3.13563  -0.00002   0.00000  -0.00105  -0.00111  -3.13674
   D28       -0.00208  -0.00005   0.00000  -0.00211  -0.00213  -0.00421
   D29       -0.01113  -0.00024   0.00000  -0.00850  -0.00844  -0.01957
   D30        3.12868  -0.00029   0.00000  -0.01102  -0.01097   3.11771
   D31        3.13850  -0.00021   0.00000  -0.00745  -0.00743   3.13106
   D32       -0.00487  -0.00027   0.00000  -0.00997  -0.00997  -0.01485
   D33       -3.12842   0.00087   0.00000   0.03456   0.03449  -3.09394
   D34       -0.00717   0.00091   0.00000   0.03436   0.03422   0.02705
   D35       -0.02996   0.00090   0.00000   0.03011   0.02997   0.00001
   D36        3.09130   0.00093   0.00000   0.02990   0.02970   3.12100
   D37        3.13047  -0.00041   0.00000  -0.01860  -0.01864   3.11183
   D38       -0.00953  -0.00038   0.00000  -0.01632  -0.01632  -0.02585
   D39        0.03051  -0.00046   0.00000  -0.01439  -0.01438   0.01613
   D40       -3.10949  -0.00043   0.00000  -0.01212  -0.01206  -3.12155
   D41        0.00583  -0.00065   0.00000  -0.02523  -0.02550  -0.01967
   D42        3.14095  -0.00011   0.00000  -0.00488  -0.00509   3.13586
   D43       -3.11595  -0.00062   0.00000  -0.02466  -0.02486  -3.14081
   D44        0.01917  -0.00008   0.00000  -0.00430  -0.00445   0.01472
   D45        0.01713   0.00014   0.00000   0.00403   0.00384   0.02097
   D46       -3.11835  -0.00036   0.00000  -0.01518  -0.01555  -3.13389
   D47       -0.01655   0.00034   0.00000   0.01351   0.01349  -0.00306
   D48        3.12241   0.00026   0.00000   0.01118   0.01124   3.13365
   D49       -0.00694  -0.00031   0.00000  -0.00862  -0.00844  -0.01538
   D50        3.13307  -0.00035   0.00000  -0.01091  -0.01083   3.12224
   D51        3.13743  -0.00022   0.00000  -0.00617  -0.00609   3.13134
   D52       -0.00574  -0.00026   0.00000  -0.00846  -0.00848  -0.01422
         Item               Value     Threshold  Converged?
 Maximum Force            0.012703     0.000015     NO 
 RMS     Force            0.003103     0.000010     NO 
 Maximum Displacement     0.477711     0.000060     NO 
 RMS     Displacement     0.128756     0.000040     NO 
 Predicted change in Energy=-2.950889D-03
 GradGradGradGradGradGradGradGradGradGradGradGradGradGradGradGradGradGrad

                          Input orientation:                          
 ---------------------------------------------------------------------
 Center     Atomic      Atomic             Coordinates (Angstroms)
 Number     Number       Type             X           Y           Z
 ---------------------------------------------------------------------
      1          8           0        0.220390   -2.158550   -1.184476
      2          6           0        0.199499   -1.112816   -0.540880
      3          6           0       -1.086695   -0.377553   -0.329197
      4          6           0       -1.314507    0.411271    0.808812
      5          6           0       -2.550980    1.030077    0.998885
      6          6           0       -3.557933    0.887081    0.042218
      7          6           0       -3.335201    0.106680   -1.095940
      8          6           0       -2.109882   -0.532193   -1.275451
      9          6           0        1.480940   -0.556126    0.012178
     10          6           0        1.694313    0.814365    0.198110
     11          6           0        2.939333    1.241586    0.664109
     12          7           0        3.948954    0.414566    0.969262
     13          6           0        3.730771   -0.897311    0.784195
     14          6           0        2.534426   -1.428365    0.305626
     15          1           0       -0.537208    0.522491    1.558959
     16          1           0       -2.726417    1.627581    1.889246
     17          1           0       -4.515436    1.381452    0.183859
     18          1           0       -4.119437   -0.010338   -1.838669
     19          1           0       -1.933808   -1.158135   -2.144044
     20          1           0        0.918406    1.537065   -0.031783
     21          1           0        3.141917    2.300432    0.815128
     22          1           0        4.567414   -1.548106    1.031479
     23          1           0        2.411141   -2.495154    0.155725
 ---------------------------------------------------------------------
                    Distance matrix (angstroms):
                    1          2          3          4          5
     1  O    0.000000
     2  C    1.228093   0.000000
     3  C    2.368951   1.496569   0.000000
     4  C    3.596261   2.537070   1.403284   0.000000
     5  C    4.755513   3.811562   2.426799   1.395677   0.000000
     6  C    5.005635   4.296265   2.800762   2.418061   1.396285
     7  C    4.216792   3.780128   2.424491   2.793575   2.419908
     8  C    2.843147   2.491979   1.402220   2.422168   2.794255
     9  C    2.364050   1.502620   2.596377   3.063496   4.443648
    10  C    3.594748   2.548451   3.071275   3.096521   4.325540
    11  C    4.729783   3.808136   4.451648   4.336533   5.504576
    12  N    5.016144   4.321092   5.260343   5.265907   6.529079
    13  C    4.217720   3.777849   4.971696   5.212276   6.574292
    14  C    2.847514   2.503603   3.823575   4.295550   5.690862
    15  H    3.910035   2.761574   2.162671   1.085949   2.150955
    16  H    5.697914   4.687886   3.410386   2.154120   1.086522
    17  H    6.068938   5.383051   3.887620   3.402611   2.155648
    18  H    4.886398   4.642513   3.407474   3.880018   3.405030
    19  H    2.561674   2.668930   2.149554   3.400872   3.879069
    20  H    3.933637   2.792468   2.788305   2.638165   3.654580
    21  H    5.693527   4.706043   5.134417   4.840319   5.835807
    22  H    4.917287   4.662667   5.932165   6.203687   7.570973
    23  H    2.590141   2.699533   4.117553   4.770146   6.144984
                    6          7          8          9         10
     6  C    0.000000
     7  C    1.397870   0.000000
     8  C    2.418149   1.393481   0.000000
     9  C    5.241564   4.986226   3.814782   0.000000
    10  C    5.255063   5.241316   4.296103   1.399408   0.000000
    11  C    6.536581   6.614799   5.692342   2.404931   1.396334
    12  N    7.578656   7.577517   6.530282   2.819458   2.416178
    13  C    7.540543   7.380438   6.203924   2.402948   2.724057
    14  C    6.522846   6.226819   4.987236   1.398838   2.397329
    15  H    3.399737   3.879453   3.408745   2.762040   2.629979
    16  H    2.156680   3.405157   3.880727   5.098413   4.802512
    17  H    1.086865   2.157750   3.402692   6.303983   6.235606
    18  H    2.158329   1.086446   2.151246   5.923490   6.215167
    19  H    3.405941   2.159208   1.085016   4.083162   4.747600
    20  H    4.523889   4.612115   3.872863   2.167908   1.084979
    21  H    6.890786   7.100548   6.322632   3.400514   2.164408
    22  H    8.539908   8.349584   7.137246   3.398429   3.811886
    23  H    6.861651   6.430914   5.132361   2.155392   3.386526
                   11         12         13         14         15
    11  C    0.000000
    12  N    1.340303   0.000000
    13  C    2.283785   1.342712   0.000000
    14  C    2.724169   2.416133   1.393660   0.000000
    15  H    3.661173   4.526040   4.564180   3.848586   0.000000
    16  H    5.809534   6.846777   7.020790   6.286742   2.474460
    17  H    7.471532   8.555561   8.576310   7.590155   4.295930
    18  H    7.593250   8.553593   8.324175   7.133211   4.965899
    19  H    6.114891   6.839075   6.382011   5.102845   4.299678
    20  H    2.157712   3.383240   3.808071   3.393986   2.382989
    21  H    1.088578   2.057074   3.251656   3.812160   4.153350
    22  H    3.250844   2.058749   1.088418   2.161999   5.533784
    23  H    3.807974   3.390160   2.165525   1.084301   4.446123
                   16         17         18         19         20
    16  H    0.000000
    17  H    2.483850   0.000000
    18  H    4.303560   2.486868   0.000000
    19  H    4.965468   4.305048   2.487502   0.000000
    20  H    4.121078   5.440345   5.571280   4.456554   0.000000
    21  H    6.003649   7.738093   8.069049   6.817724   2.498797
    22  H    8.001295   9.581176   9.277061   7.245820   4.895310
    23  H    6.811501   7.937653   7.266386   5.094619   4.303744
                   21         22         23
    21  H    0.000000
    22  H    4.109756   0.000000
    23  H    4.895559   2.512640   0.000000
 Stoichiometry    C12H9NO
 Framework group  C1[X(C12H9NO)]
 Deg. of freedom    63
 Full point group                 C1      NOp   1
 Largest Abelian subgroup         C1      NOp   1
 Largest concise Abelian subgroup C1      NOp   1
                         Standard orientation:                         
 ---------------------------------------------------------------------
 Center     Atomic      Atomic             Coordinates (Angstroms)
 Number     Number       Type             X           Y           Z
 ---------------------------------------------------------------------
      1          8           0        0.016370    2.341779   -0.028195
      2          6           0        0.004188    1.113749   -0.025450
      3          6           0       -1.293073    0.367650   -0.038359
      4          6           0       -1.414324   -0.904462   -0.618215
      5          6           0       -2.656093   -1.539846   -0.665245
      6          6           0       -3.778476   -0.921457   -0.110751
      7          6           0       -3.662955    0.343541    0.472753
      8          6           0       -2.428936    0.990317    0.498599
      9          6           0        1.302636    0.358867    0.019854
     10          6           0        1.426271   -0.901893    0.614448
     11          6           0        2.686694   -1.501143    0.658947
     12          7           0        3.795814   -0.951794    0.144671
     13          6           0        3.662684    0.258677   -0.420937
     14          6           0        2.457013    0.953141   -0.500723
     15          1           0       -0.546258   -1.388680   -1.055569
     16          1           0       -2.746561   -2.518404   -1.128680
     17          1           0       -4.742169   -1.423455   -0.134623
     18          1           0       -4.536271    0.828720    0.899701
     19          1           0       -2.332238    1.981559    0.929120
     20          1           0        0.567321   -1.400531    1.051191
     21          1           0        2.820487   -2.478809    1.118589
     22          1           0        4.578071    0.687516   -0.824442
     23          1           0        2.402188    1.937570   -0.951947
 ---------------------------------------------------------------------
 Rotational constants (GHZ):           1.7135320           0.4110655           0.3494064
 Standard basis: 6-31G(d) (6D, 7F)
 There are   228 symmetry adapted cartesian basis functions of A   symmetry.
 There are   228 symmetry adapted basis functions of A   symmetry.
   228 basis functions,   428 primitive gaussians,   228 cartesian basis functions
    48 alpha electrons       48 beta electrons
       nuclear repulsion energy       777.3808196617 Hartrees.
 NAtoms=   23 NActive=   23 NUniq=   23 SFac= 1.00D+00 NAtFMM=   60 NAOKFM=F Big=F
 Integral buffers will be    131072 words long.
 Raffenetti 2 integral format.
 Two-electron integral symmetry is turned on.
 One-electron integrals computed using PRISM.
 NBasis=   228 RedAO= T EigKep=  4.69D-04  NBF=   228
 NBsUse=   228 1.00D-06 EigRej= -1.00D+00 NBFU=   228
 Initial guess from the checkpoint file:  "0.chk"
 B after Tr=    -0.000000    0.000000   -0.000000
         Rot=    0.999993    0.002524    0.001915   -0.001922 Ang=   0.42 deg.
 ExpMin= 1.61D-01 ExpMax= 5.48D+03 ExpMxC= 8.25D+02 IAcc=2 IRadAn=         4 AccDes= 0.00D+00
 Harris functional with IExCor=  402 and IRadAn=       4 diagonalized for initial guess.
 HarFok:  IExCor=  402 AccDes= 0.00D+00 IRadAn=         4 IDoV= 1 UseB2=F ITyADJ=14
 ICtDFT=  3500011 ScaDFX=  1.000000  1.000000  1.000000  1.000000
 FoFCou: FMM=F IPFlag=           0 FMFlag=      100000 FMFlg1=           0
         NFxFlg=           0 DoJE=T BraDBF=F KetDBF=T FulRan=T
         wScrn=  0.000000 ICntrl=       500 IOpCl=  0 I1Cent=   200000004 NGrid=           0
         NMat0=    1 NMatS0=      1 NMatT0=    0 NMatD0=    1 NMtDS0=    0 NMtDT0=    0
 Petite list used in FoFCou.
 Requested convergence on RMS density matrix=1.00D-08 within 128 cycles.
 Requested convergence on MAX density matrix=1.00D-06.
 Requested convergence on             energy=1.00D-06.
 No special actions if energy rises.
 Integral accuracy reduced to 1.0D-05 until final iterations.
 Initial convergence to 1.0D-05 achieved.  Increase integral accuracy.
 SCF Done:  E(RB3LYP) =  -592.666055214     A.U. after   13 cycles
            NFock= 13  Conv=0.81D-08     -V/T= 2.0096
 Calling FoFJK, ICntrl=      2127 FMM=F ISym2X=0 I1Cent= 0 IOpClX= 0 NMat=1 NMatS=1 NMatT=0.
 ***** Axes restored to original set *****
 -------------------------------------------------------------------
 Center     Atomic                   Forces (Hartrees/Bohr)
 Number     Number              X              Y              Z
 -------------------------------------------------------------------
      1        8           0.000668818    0.004178088    0.003045311
      2        6          -0.001766295   -0.004839752   -0.005519814
      3        6           0.002426081    0.000676673    0.001135327
      4        6          -0.002591541    0.000643117    0.001544742
      5        6           0.000397916    0.000255767   -0.000667602
      6        6           0.000096853    0.000203740    0.000250913
      7        6           0.001195508   -0.000884933   -0.000257889
      8        6          -0.003027231   -0.000251111    0.000017244
      9        6          -0.000882413    0.000578019    0.001791828
     10        6           0.002307865    0.001352916   -0.000414254
     11        6           0.002427903   -0.000481361    0.001913522
     12        7          -0.003453900   -0.000970131   -0.001731550
     13        6           0.001350616    0.001082563    0.000399778
     14        6           0.001734852    0.000243648   -0.000164768
     15        1          -0.001002539   -0.000595161   -0.000111329
     16        1           0.000117236   -0.000156799    0.000062742
     17        1           0.000011742   -0.000185853    0.000034675
     18        1           0.000005333    0.000178690   -0.000057709
     19        1           0.000839016   -0.000267875    0.000139716
     20        1           0.001182370    0.000191607   -0.000339902
     21        1          -0.001183323    0.000435874   -0.000786413
     22        1          -0.000668334   -0.001051628   -0.000141316
     23        1          -0.000186533   -0.000336101   -0.000143250
 -------------------------------------------------------------------
 Cartesian Forces:  Max     0.005519814 RMS     0.001546234

 GradGradGradGradGradGradGradGradGradGradGradGradGradGradGradGradGradGrad
 Berny optimization.
 Using GEDIIS/GDIIS optimizer.
 FormGI is forming the generalized inverse of G from B-inverse, IUseBI=4.
 Internal  Forces:  Max     0.006416073 RMS     0.001428328
 Search for a local minimum.
 Step number   2 out of a maximum of  123
 All quantities printed in internal units (Hartrees-Bohrs-Radians)
 Mixed Optimization -- RFO/linear search
 Update second derivatives using D2CorX and points    1    2
 DE= -2.42D-03 DEPred=-2.95D-03 R= 8.21D-01
 TightC=F SS=  1.41D+00  RLast= 3.71D-01 DXNew= 5.0454D-01 1.1118D+00
 Trust test= 8.21D-01 RLast= 3.71D-01 DXMaxT set to 5.05D-01
 ITU=  1  0
 Use linear search instead of GDIIS.
     Eigenvalues ---    0.00968   0.00984   0.01347   0.01737   0.01792
     Eigenvalues ---    0.02108   0.02122   0.02125   0.02142   0.02149
     Eigenvalues ---    0.02152   0.02153   0.02158   0.02212   0.02248
     Eigenvalues ---    0.02276   0.02311   0.02332   0.02339   0.02440
     Eigenvalues ---    0.14642   0.15995   0.15999   0.15999   0.16000
     Eigenvalues ---    0.16000   0.16000   0.16000   0.16217   0.20855
     Eigenvalues ---    0.21998   0.22000   0.22014   0.23033   0.23557
     Eigenvalues ---    0.24689   0.24971   0.24994   0.29303   0.32633
     Eigenvalues ---    0.34137   0.35027   0.35093   0.35103   0.35127
     Eigenvalues ---    0.35186   0.35211   0.35233   0.35394   0.35594
     Eigenvalues ---    0.41845   0.41922   0.43281   0.43589   0.45752
     Eigenvalues ---    0.45928   0.46273   0.46406   0.47141   0.49041
     Eigenvalues ---    0.52368   0.54254   0.92429
 RFO step:  Lambda=-1.12147994D-03 EMin= 9.67608441D-03
 Quartic linear search produced a step of -0.10493.
 Iteration  1 RMS(Cart)=  0.07330323 RMS(Int)=  0.00103509
 Iteration  2 RMS(Cart)=  0.00190124 RMS(Int)=  0.00014061
 Iteration  3 RMS(Cart)=  0.00000204 RMS(Int)=  0.00014061
 Iteration  4 RMS(Cart)=  0.00000000 RMS(Int)=  0.00014061
 Variable       Old X    -DE/DX   Delta X   Delta X   Delta X     New X
                                 (Linear)    (Quad)   (Total)
    R1        2.32076  -0.00514   0.00002  -0.00508  -0.00506   2.31570
    R2        2.82810   0.00142  -0.00248   0.01220   0.00972   2.83782
    R3        2.83954   0.00277  -0.00384   0.02036   0.01653   2.85607
    R4        2.65182   0.00146  -0.00059   0.00506   0.00449   2.65632
    R5        2.64981   0.00097  -0.00053   0.00378   0.00327   2.65308
    R6        2.63745  -0.00056   0.00014  -0.00151  -0.00136   2.63609
    R7        2.05215  -0.00086   0.00018  -0.00278  -0.00260   2.04954
    R8        2.63860  -0.00028  -0.00021   0.00008  -0.00016   2.63844
    R9        2.05323  -0.00005   0.00019  -0.00079  -0.00060   2.05263
   R10        2.64159   0.00001  -0.00061   0.00194   0.00130   2.64289
   R11        2.05388  -0.00009   0.00014  -0.00071  -0.00057   2.05331
   R12        2.63330  -0.00140   0.00038  -0.00407  -0.00369   2.62961
   R13        2.05309   0.00002   0.00017  -0.00053  -0.00037   2.05272
   R14        2.05038   0.00018   0.00065  -0.00178  -0.00112   2.04926
   R15        2.64450   0.00168  -0.00096   0.00675   0.00583   2.65032
   R16        2.64342   0.00087  -0.00087   0.00480   0.00396   2.64738
   R17        2.63869  -0.00056  -0.00257   0.00781   0.00524   2.64393
   R18        2.05031  -0.00065  -0.00023  -0.00083  -0.00106   2.04925
   R19        2.53281  -0.00154   0.00194  -0.00927  -0.00735   2.52545
   R20        2.05711   0.00009  -0.00038   0.00154   0.00116   2.05828
   R21        2.53736  -0.00117   0.00160  -0.00756  -0.00599   2.53137
   R22        2.63363  -0.00125  -0.00235   0.00566   0.00330   2.63693
   R23        2.05681   0.00008  -0.00039   0.00154   0.00115   2.05796
   R24        2.04903   0.00037   0.00017   0.00035   0.00052   2.04956
    A1        2.10260  -0.00224  -0.00212  -0.00042  -0.00286   2.09975
    A2        2.08731  -0.00416  -0.00102  -0.01101  -0.01235   2.07496
    A3        2.09306   0.00642   0.00317   0.01229   0.01515   2.10821
    A4        2.12987   0.00505  -0.00072   0.01980   0.01876   2.14863
    A5        2.06859  -0.00385  -0.00015  -0.01390  -0.01429   2.05429
    A6        2.08379  -0.00123   0.00090  -0.00757  -0.00682   2.07697
    A7        2.09844   0.00016  -0.00071   0.00352   0.00286   2.10130
    A8        2.09620   0.00013   0.00196  -0.00621  -0.00428   2.09192
    A9        2.08823  -0.00029  -0.00123   0.00249   0.00121   2.08944
   A10        2.09461   0.00025   0.00015   0.00041   0.00056   2.09518
   A11        2.09263  -0.00029   0.00026  -0.00226  -0.00201   2.09062
   A12        2.09593   0.00004  -0.00041   0.00187   0.00146   2.09739
   A13        2.09454   0.00000   0.00025  -0.00142  -0.00121   2.09333
   A14        2.09377   0.00004   0.00001   0.00043   0.00045   2.09422
   A15        2.09488  -0.00004  -0.00027   0.00099   0.00073   2.09561
   A16        2.09549   0.00001  -0.00015   0.00002  -0.00014   2.09535
   A17        2.09640  -0.00008  -0.00004  -0.00000  -0.00004   2.09636
   A18        2.09126   0.00007   0.00019  -0.00001   0.00019   2.09145
   A19        2.09918   0.00081  -0.00045   0.00480   0.00439   2.10357
   A20        2.07765  -0.00130   0.00210  -0.01384  -0.01176   2.06589
   A21        2.10634   0.00049  -0.00165   0.00906   0.00738   2.11373
   A22        2.14332   0.00521  -0.00180   0.02380   0.02165   2.16497
   A23        2.08112  -0.00402  -0.00163  -0.00973  -0.01163   2.06949
   A24        2.05777  -0.00123   0.00345  -0.01582  -0.01251   2.04526
   A25        2.07137   0.00007  -0.00171   0.00695   0.00530   2.07667
   A26        2.11197   0.00076   0.00249  -0.00481  -0.00237   2.10960
   A27        2.09966  -0.00083  -0.00078  -0.00233  -0.00317   2.09649
   A28        2.16378  -0.00040  -0.00039  -0.00035  -0.00074   2.16304
   A29        2.10579  -0.00128   0.00083  -0.01014  -0.00934   2.09644
   A30        2.01354   0.00168  -0.00043   0.01062   0.01016   2.02370
   A31        2.03654   0.00150   0.00079   0.00158   0.00234   2.03887
   A32        2.16412  -0.00076  -0.00070  -0.00126  -0.00196   2.16216
   A33        2.01305   0.00166  -0.00004   0.00904   0.00900   2.02205
   A34        2.10601  -0.00089   0.00073  -0.00778  -0.00705   2.09896
   A35        2.07250   0.00082  -0.00147   0.00873   0.00731   2.07981
   A36        2.09306  -0.00058   0.00265  -0.01192  -0.00930   2.08376
   A37        2.11761  -0.00024  -0.00118   0.00320   0.00200   2.11961
    D1        2.63093  -0.00133  -0.01486  -0.03150  -0.04648   2.58445
    D2       -0.46386  -0.00050  -0.01583   0.01053  -0.00529  -0.46915
    D3       -0.53282  -0.00068  -0.01278   0.01370   0.00092  -0.53190
    D4        2.65558   0.00015  -0.01374   0.05572   0.04211   2.69769
    D5        2.61920  -0.00107  -0.00837  -0.03481  -0.04337   2.57583
    D6       -0.47414  -0.00014  -0.00898   0.00928   0.00036  -0.47378
    D7       -0.50043  -0.00173  -0.01044  -0.07974  -0.09022  -0.59066
    D8        2.68942  -0.00081  -0.01104  -0.03564  -0.04650   2.64292
    D9       -3.08882   0.00031  -0.00462   0.02976   0.02547  -3.06335
   D10        0.02547   0.00012  -0.00411   0.02144   0.01760   0.04307
   D11        0.00557  -0.00059  -0.00367  -0.01278  -0.01641  -0.01084
   D12        3.11986  -0.00078  -0.00316  -0.02110  -0.02428   3.09558
   D13        3.11129  -0.00012   0.00243  -0.02154  -0.01870   3.09259
   D14       -0.02605  -0.00031   0.00217  -0.02817  -0.02562  -0.05168
   D15        0.01524   0.00052   0.00153   0.01860   0.02003   0.03526
   D16       -3.12211   0.00032   0.00127   0.01197   0.01311  -3.10900
   D17       -0.02204   0.00032   0.00341   0.00032   0.00381  -0.01823
   D18        3.12574   0.00003   0.00148  -0.00362  -0.00212   3.12362
   D19       -3.13646   0.00050   0.00286   0.00874   0.01176  -3.12469
   D20        0.01133   0.00021   0.00093   0.00481   0.00583   0.01715
   D21        0.01775   0.00004  -0.00100   0.00650   0.00547   0.02322
   D22       -3.12567  -0.00017  -0.00226   0.00195  -0.00035  -3.12602
   D23       -3.13004   0.00033   0.00093   0.01042   0.01142  -3.11862
   D24        0.00972   0.00012  -0.00033   0.00587   0.00559   0.01531
   D25        0.00302  -0.00012  -0.00115  -0.00076  -0.00195   0.00108
   D26        3.13555  -0.00007  -0.00104  -0.00025  -0.00126   3.13429
   D27       -3.13674   0.00009   0.00012   0.00380   0.00389  -3.13285
   D28       -0.00421   0.00014   0.00022   0.00431   0.00457   0.00036
   D29       -0.01957  -0.00016   0.00089  -0.01192  -0.01100  -0.03056
   D30        3.11771   0.00003   0.00115  -0.00524  -0.00393   3.11378
   D31        3.13106  -0.00022   0.00078  -0.01243  -0.01168   3.11939
   D32       -0.01485  -0.00002   0.00105  -0.00575  -0.00461  -0.01946
   D33       -3.09394   0.00050  -0.00362   0.03301   0.02972  -3.06421
   D34        0.02705   0.00018  -0.00359   0.02242   0.01909   0.04614
   D35        0.00001  -0.00049  -0.00314  -0.01039  -0.01344  -0.01343
   D36        3.12100  -0.00080  -0.00312  -0.02098  -0.02407   3.09693
   D37        3.11183  -0.00027   0.00196  -0.02599  -0.02354   3.08829
   D38       -0.02585  -0.00039   0.00171  -0.02946  -0.02733  -0.05318
   D39        0.01613   0.00043   0.00151   0.01486   0.01623   0.03237
   D40       -3.12155   0.00031   0.00127   0.01139   0.01244  -3.10911
   D41       -0.01967   0.00033   0.00268   0.00262   0.00542  -0.01425
   D42        3.13586  -0.00025   0.00053  -0.01022  -0.00962   3.12624
   D43       -3.14081   0.00063   0.00261   0.01317   0.01596  -3.12485
   D44        0.01472   0.00005   0.00047   0.00033   0.00092   0.01564
   D45        0.02097  -0.00005  -0.00040   0.00068   0.00024   0.02121
   D46       -3.13389   0.00048   0.00163   0.01276   0.01457  -3.11932
   D47       -0.00306  -0.00003  -0.00142   0.00419   0.00274  -0.00032
   D48        3.13365  -0.00000  -0.00118   0.00286   0.00170   3.13535
   D49       -0.01538  -0.00018   0.00089  -0.01239  -0.01148  -0.02686
   D50        3.12224  -0.00006   0.00114  -0.00890  -0.00763   3.11461
   D51        3.13134  -0.00022   0.00064  -0.01103  -0.01044   3.12090
   D52       -0.01422  -0.00009   0.00089  -0.00755  -0.00659  -0.02081
         Item               Value     Threshold  Converged?
 Maximum Force            0.006416     0.000015     NO 
 RMS     Force            0.001428     0.000010     NO 
 Maximum Displacement     0.287986     0.000060     NO 
 RMS     Displacement     0.073837     0.000040     NO 
 Predicted change in Energy=-6.206410D-04
 GradGradGradGradGradGradGradGradGradGradGradGradGradGradGradGradGradGrad

                          Input orientation:                          
 ---------------------------------------------------------------------
 Center     Atomic      Atomic             Coordinates (Angstroms)
 Number     Number       Type             X           Y           Z
 ---------------------------------------------------------------------
      1          8           0        0.229941   -2.091481   -1.193028
      2          6           0        0.204574   -1.044293   -0.557101
      3          6           0       -1.094681   -0.325680   -0.332000
      4          6           0       -1.364238    0.429871    0.822282
      5          6           0       -2.623637    0.997543    1.016115
      6          6           0       -3.619426    0.835704    0.050925
      7          6           0       -3.362014    0.080463   -1.097690
      8          6           0       -2.115189   -0.510432   -1.278313
      9          6           0        1.494634   -0.509782    0.021056
     10          6           0        1.781632    0.854749    0.171616
     11          6           0        3.046799    1.234609    0.632664
     12          7           0        4.012146    0.370234    0.959712
     13          6           0        3.735490   -0.931363    0.805839
     14          6           0        2.516097   -1.416757    0.331888
     15          1           0       -0.599562    0.545583    1.582662
     16          1           0       -2.826228    1.565439    1.919604
     17          1           0       -4.595525    1.290437    0.196069
     18          1           0       -4.136871   -0.052929   -1.847190
     19          1           0       -1.905332   -1.120591   -2.149884
     20          1           0        1.048924    1.609758   -0.091183
     21          1           0        3.294313    2.289575    0.742777
     22          1           0        4.535082   -1.621448    1.071202
     23          1           0        2.343072   -2.479207    0.199327
 ---------------------------------------------------------------------
                    Distance matrix (angstroms):
                    1          2          3          4          5
     1  O    0.000000
     2  C    1.225417   0.000000
     3  C    2.369398   1.501712   0.000000
     4  C    3.600014   2.556762   1.405662   0.000000
     5  C    4.750294   3.826602   2.430235   1.394958   0.000000
     6  C    4.993341   4.304307   2.805312   2.417760   1.396202
     7  C    4.198639   3.778606   2.427351   2.792756   2.419589
     8  C    2.829598   2.487259   1.403951   2.420867   2.792295
     9  C    2.361190   1.511365   2.619751   3.114172   4.496925
    10  C    3.598648   2.573811   3.149638   3.240431   4.487758
    11  C    4.725539   3.832386   4.529563   4.487851   5.688329
    12  N    4.999940   4.335806   5.313426   5.378471   6.665607
    13  C    4.198836   3.786520   4.999209   5.278301   6.648564
[...]
 ,0.00263597,-0.00313669,-0.00198959,-0.00103778,-0.00030028,0.00000787
 ,-0.00017755,-0.00007889,0.00019690,-0.00019587,-0.00009350,0.00001773
 ,0.00003774,-0.00012795,0.00016902,-0.00022669,-0.00060346,0.00044363,
 0.00059087,0.12292509,-0.21448700,0.03048107,0.01641844,-0.04259614,0.
 00362819,0.00544493,-0.00239001,0.00266803,-0.03616744,-0.01843018,-0.
 01715459,-0.08439056,-0.15478407,-0.03713057,0.00699867,0.74826149,-0.
 00236628,0.00164830,-0.00009436,-0.01220540,0.00608831,0.00014712,-0.0
 0078688,-0.00213520,-0.00015398,0.00019419,-0.00013648,-0.00012631,-0.
 00008917,0.00017500,0.00009363,0.00003559,0.00002853,0.00006062,0.0000
 1477,0.00003545,-0.00011585,-0.00032031,0.00058271,0.00012467,-0.04972
 157,0.01306204,-0.08358887,0.01724781,0.01679190,0.01412484,-0.0202334
 4,0.00828588,-0.01689069,-0.00352349,-0.03838943,0.01861557,-0.0893679
 3,-0.01418567,-0.10285328,0.18226205,0.05365544,0.20629755,0.00023453,
 -0.00057091,-0.00042037,-0.00040570,-0.00036583,0.00094047,0.00818390,
 -0.00004021,0.00375738,-0.20239976,-0.01987810,-0.14228405,-0.01577191
 ,-0.00503261,-0.02075242,-0.00306645,0.00458736,0.00115710,-0.00016302
 ,0.00042836,0.00085095,0.00118589,0.00224832,0.00071399,-0.00091954,0.
 00077861,0.00061595,-0.00186249,-0.00082922,0.00115816,-0.00013405,-0.
 00008608,0.00027915,-0.00001800,0.00025778,-0.00018488,-0.00027373,-0.
 00021062,-0.00000536,0.00044300,-0.00010673,-0.00007482,0.21558584,0.0
 0055390,-0.00035455,-0.00063908,-0.00267361,-0.00179348,0.00174941,-0.
 01301074,0.00014958,-0.01126289,-0.02012504,-0.04953761,-0.03457400,0.
 01013153,0.00559801,0.01001184,0.00396752,0.00384075,-0.00354343,0.000
 24272,-0.00044898,0.00002058,0.00302422,0.00214358,-0.00503850,-0.0001
 1135,0.00051000,-0.00014542,-0.00041388,0.00026077,0.00016284,0.000270
 64,0.00001891,0.00012123,-0.00011945,0.00019043,-0.00007502,-0.0001282
 8,-0.00026029,-0.00004827,0.00043659,-0.00027957,0.00007627,0.02027195
 ,0.04269956,0.00039286,-0.00005410,0.00048413,-0.00133627,0.00239008,-
 0.00073116,-0.01956378,-0.00196973,-0.01328101,-0.14171554,-0.03505913
 ,-0.18731854,0.00503766,0.00046833,0.00724352,0.00053523,-0.00310924,0
 .00252228,0.00080853,-0.00011885,-0.00024842,0.00157106,-0.00537336,-0
 .00156542,0.00050657,-0.00063310,0.00020571,0.00011489,-0.00031010,0.0
 0029517,0.00042106,0.00017526,0.00041025,-0.00026793,0.00040373,-0.000
 19788,-0.00014064,-0.00022506,-0.00011807,0.00032506,0.00001482,0.0002
 5428,0.15357161,0.04050660,0.19357943,-0.00069421,0.00064912,0.0002386
 4,0.00112690,0.00026077,0.00106776,-0.00449162,0.00336931,-0.00136811,
 -0.00089693,0.01613330,0.02533378,-0.06565526,0.03198958,0.03463860,0.
 00828171,-0.01417795,-0.02010206,-0.00286434,0.00136152,-0.00371964,-0
 .00106280,-0.00008530,-0.00045467,-0.00006448,0.00010861,-0.00005581,-
 0.00008239,0.00003670,-0.00003059,0.00002088,0.00002456,0.00001116,-0.
 00002935,-0.00002675,-0.00002400,0.00000871,0.00000518,0.00000571,-0.0
 0003581,-0.00007077,-0.00002944,0.00065807,-0.00142262,0.00044354,0.06
 492263,0.00016558,-0.00050771,0.00002529,-0.00067479,0.00056087,-0.000
 72333,0.00435741,0.00437330,-0.00222957,0.00041487,-0.00418548,-0.0104
 0354,0.03233459,-0.12899437,-0.13569672,0.00127429,0.00054633,-0.00240
 403,0.00068240,0.00525529,-0.00257213,0.00018377,-0.00013946,0.0004857
 9,0.00002208,-0.00004996,0.00004945,0.00001892,0.00000071,0.00000908,-
 0.00000894,-0.00001486,0.00000279,0.00004217,0.00001378,0.00002001,-0.
 00002745,-0.00000669,-0.00001243,0.00003518,0.00004745,0.00002608,-0.0
 0114373,-0.00234872,0.00197863,-0.03620747,0.12840102,0.00034588,-0.00
 012736,-0.00020934,-0.00077272,-0.00004324,0.00020467,-0.00013243,-0.0
 0231307,0.00311726,-0.00047988,-0.00120275,-0.00018244,0.03436934,-0.1
 3592905,-0.24161583,0.00610193,-0.01161330,-0.01319001,-0.00471143,-0.
 00220741,0.00038185,-0.00062938,0.00060059,0.00026715,0.00007615,-0.00
 002661,-0.00001282,0.00010231,-0.00002530,0.00000480,-0.00003911,-0.00
 003797,-0.00001597,0.00003454,0.00001478,0.00001544,-0.00001108,0.0000
 0634,0.00000011,0.00001630,0.00005884,0.00001656,0.00092288,0.00186411
 ,-0.00027095,-0.03631290,0.14935006,0.25269157,-0.00007717,0.00013427,
 -0.00001690,0.00010093,-0.00042802,0.00019004,0.00037685,-0.00052118,-
 0.00029781,-0.00092361,0.00022183,-0.00484676,-0.01600574,0.01071374,0
 .00567324,-0.28245199,0.11131378,0.03137968,-0.00064699,0.00090240,-0.
 00097972,0.00212881,0.00173799,-0.00020323,-0.00007428,0.00002564,-0.0
 0001685,-0.00007966,0.00000400,0.00003854,0.00006692,0.00004360,0.0000
 3900,-0.00005493,0.00002209,-0.00002310,0.00000374,-0.00002378,0.00000
 138,0.00000714,-0.00005905,-0.00001079,-0.00087534,0.00053728,0.000344
 33,0.00051112,-0.00132572,0.00055930,0.29774539,0.00026700,0.00001061,
 -0.00006746,-0.00038422,-0.00090726,0.00047677,-0.00059273,-0.00033312
 ,0.00002209,0.00062112,0.00507370,-0.00343843,-0.00504394,0.00549085,0
 .00040097,0.11129172,-0.09556485,-0.02583956,0.01671761,-0.00341388,-0
 .00089774,0.00134057,0.00294188,-0.00596900,-0.00006603,0.00005707,-0.
 00007372,-0.00001860,0.00002740,0.00001614,0.00003876,-0.00000650,0.00
 001887,0.00000615,0.00004203,-0.00000084,-0.00004622,-0.00002824,-0.00
 000325,0.00005742,-0.00001535,0.00000400,-0.00032930,0.00015448,0.0000
 2072,-0.00095799,-0.00230129,0.00197618,-0.12232526,0.09113006,0.00006
 071,0.00005981,0.00025013,0.00013879,0.00045119,-0.00039384,-0.0004110
 5,-0.00025566,-0.00117901,-0.00396941,-0.00361383,-0.00098468,-0.01996
 726,0.00995843,0.00747380,0.03145957,-0.02591203,-0.06097043,0.0245390
 4,-0.01052034,0.00125226,-0.00102058,-0.00555621,-0.00229459,0.0000816
 0,-0.00006816,0.00003961,0.00000499,-0.00003721,0.00001205,-0.00000673
 ,0.00000592,0.00000769,0.00000206,0.00000263,0.00000120,0.00000768,0.0
 0000310,-0.00000613,0.00000285,0.00002757,0.00002656,-0.00101511,0.000
 49811,0.00022912,0.00114224,0.00181174,-0.00018936,-0.03260675,0.03143
 488,0.05693363,0.00003542,0.00037712,0.00031716,-0.00013034,-0.0011477
 4,-0.00150491,-0.00287518,0.00499201,0.00112064,-0.00009306,0.00046707
 ,0.00082053,0.00141903,0.00230182,0.00039410,0.00782737,0.00136520,0.0
 0537759,-0.20670094,-0.02339841,-0.14030189,-0.01674648,-0.00547661,-0
 .02040128,-0.00028061,0.00027631,0.00025608,-0.00006617,0.00001552,-0.
 00001760,0.00003206,0.00002664,-0.00001948,-0.00005956,-0.00003435,-0.
 00000273,0.00004439,0.00004160,-0.00001891,-0.00012743,-0.00013994,-0.
 00006420,-0.00010000,-0.00040709,0.00007737,0.00031829,0.00017406,0.00
 030366,0.00038388,-0.00131298,0.00035058,0.21654045,0.00005465,-0.0001
 0516,-0.00009570,0.00035322,0.00059901,0.00041410,0.00416310,0.0038661
 5,-0.00325842,0.00050729,-0.00068738,-0.00030377,0.00294330,0.00252708
 ,-0.00529625,-0.01466804,0.00081015,-0.01162586,-0.02329172,-0.0507345
 3,-0.03666022,0.01016322,0.00528435,0.01029014,0.00025731,-0.00019125,
 0.00008300,0.00000589,-0.00008855,0.00002545,-0.00001654,0.00000820,-0
 .00002378,0.00000624,-0.00002082,0.00000841,0.00002287,-0.00000670,0.0
 0000499,0.00004599,0.00006168,-0.00000517,-0.00036343,-0.00079946,0.00
 055362,-0.00070607,0.00013908,-0.00075077,-0.00095494,-0.00208707,0.00
 210020,0.02308493,0.04369217,-0.00023150,0.00012606,0.00002177,0.00048
 438,-0.00015978,0.00036488,0.00010745,-0.00325163,0.00259129,0.0008191
 4,-0.00023883,-0.00008867,0.00139506,-0.00555225,-0.00117904,-0.020240
 18,-0.00203296,-0.01295465,-0.14011455,-0.03654791,-0.17986158,0.00503
 698,0.00072243,0.00682512,-0.00002066,0.00003002,-0.00014958,-0.000017
 19,0.00004335,0.00000806,0.00002123,0.00000863,0.00003249,-0.00002036,
 0.00001904,-0.00001523,-0.00000750,-0.00001328,0.00001423,0.00000477,-
 0.00002494,0.00000966,0.00009780,0.00060904,-0.00027484,-0.00108431,-0
 .00018065,-0.00067524,0.00093156,0.00186441,-0.00013872,0.15227171,0.0
 4251873,0.18605132,-0.00052699,0.00094786,0.00131720,0.00013704,-0.003
 16771,-0.00133895,0.00813363,-0.01337467,-0.01842640,-0.00335827,0.001
 09737,-0.00369668,-0.00100211,-0.00000121,-0.00031746,-0.00403709,0.00
 373492,-0.00131930,0.00000036,0.01659475,0.02334452,-0.06655566,0.0329
 4838,0.03742611,0.00026074,0.00036660,0.00002868,0.00022150,-0.0000707
 8,0.00005583,-0.00001274,0.00000731,0.00000822,0.00006019,0.00006732,0
 .00002652,-0.00007873,0.00001404,-0.00002774,0.00004152,0.00004987,0.0
 0005947,0.00041200,-0.00057047,-0.00129631,0.00002376,-0.00030706,0.00
 025423,-0.00015168,0.00071883,0.00122852,0.00061109,-0.00157326,0.0005
 2143,0.06581632,0.00163976,0.00004366,0.00071527,-0.00012581,-0.003817
 50,0.00076335,-0.00117632,0.00140621,-0.00423412,0.00067217,0.00402983
 ,-0.00214988,0.00003002,-0.00002242,0.00060439,0.00385856,0.00452773,-
 0.00223586,0.00082709,-0.00302686,-0.00982411,0.03340590,-0.14161218,-
 0.14078156,-0.00018868,0.00009325,-0.00016938,-0.00011788,0.00006564,-
 0.00002379,-0.00001215,-0.00001992,0.00001676,-0.00001039,-0.00004785,
 -0.00001615,0.00001528,0.00005017,0.00004217,-0.00005762,-0.00009876,-
 0.00008500,0.00031446,0.00036854,-0.00024611,-0.00027491,-0.00079028,0
 .00042580,-0.00005182,-0.00025882,-0.00041838,-0.00120088,-0.00227739,
 0.00205091,-0.03756230,0.14141548,0.00128067,0.00139348,0.00188228,0.0
 0193612,-0.00085506,-0.00222809,0.00424840,-0.01279492,-0.01352299,-0.
 00463727,-0.00197291,0.00026312,-0.00017829,0.00048751,0.00019346,-0.0
 0083756,-0.00276406,0.00308275,-0.00096898,-0.00099729,0.00181331,0.03
 543121,-0.13993880,-0.23469424,-0.00001215,0.00002164,0.00022644,0.000
 07609,-0.00005224,0.00003435,0.00003980,0.00001392,-0.00000915,0.00000
 583,0.00006625,0.00002492,-0.00003041,-0.00001312,-0.00005474,0.000053
 68,0.00003876,0.00008839,0.00023654,-0.00084432,-0.00054925,0.00024829
 ,0.00048037,-0.00032340,-0.00012305,0.00005477,-0.00004791,0.00102159,
 0.00201717,-0.00055379,-0.03777625,0.15558564,0.24440604,0.00024463,0.
 00067472,0.00038310,-0.00052435,-0.00065871,0.00092108,-0.00058917,-0.
 00066417,-0.00037297,-0.00134115,-0.00051913,0.00109567,-0.00012184,-0
 .00011832,0.00011833,-0.00007894,0.00002447,-0.00017230,-0.00016930,0.
 00004125,0.00012934,0.00032132,0.00020402,-0.00003755,0.00890819,-0.00
 423306,0.00259821,-0.18828849,0.13480852,-0.05318084,-0.01257777,0.023
 16356,-0.00418051,-0.00431284,-0.00190817,-0.00452614,-0.00013261,-0.0
 0205004,-0.00015590,0.00155813,-0.00188967,-0.00224125,-0.00076116,-0.
 00041816,0.00023380,0.00001858,-0.00001774,-0.00000954,0.00002606,0.00
 001838,-0.00002053,-0.00000297,-0.00004252,0.00004017,0.00000911,0.000
 01863,0.00000208,0.19726009,-0.00052504,0.00000367,-0.00026164,0.00227
 270,0.00082569,0.00108666,-0.00027872,0.00002622,-0.00037296,-0.000014
 38,0.00026361,-0.00030926,-0.00031150,0.00029483,0.00002420,0.00011796
 ,0.00005940,0.00031376,0.00022288,-0.00020663,-0.00012471,-0.00049274,
 0.00016084,-0.00019562,0.02195675,-0.01636827,0.00733029,0.13435641,-0
 .19788352,0.04400546,-0.00746486,0.01086649,-0.00232791,-0.00242699,0.
 00097792,-0.00113102,-0.00093365,-0.00077510,-0.00036912,-0.00281704,-
 0.00476980,-0.00173008,0.00007339,-0.00005235,0.00054093,0.00001973,-0
 .00000462,-0.00003989,0.00003916,-0.00001408,0.00002137,0.00001178,0.0
 0001208,0.00000937,0.00004328,-0.00001909,0.00004124,-0.14571350,0.206
 62356,-0.00043798,-0.00099606,-0.00014371,0.00223426,0.00054986,-0.002
 98871,0.00048570,0.00023072,0.00064416,0.00021547,0.00018593,0.0004772
 3,-0.00008001,-0.00009724,-0.00011586,0.00007379,0.00003549,0.00012141
 ,0.00010742,-0.00009126,-0.00017783,-0.00027689,-0.00018989,-0.0001830
 1,0.00273613,-0.00332200,0.00255743,-0.05255829,0.04467559,-0.05403756
 ,-0.00558385,0.00914151,-0.00067657,-0.00439875,-0.00121394,0.00615734
 ,0.00001240,-0.00049209,-0.00013404,-0.00245856,-0.00152719,0.00657361
 ,0.00042143,0.00055205,-0.00062358,0.00003363,-0.00000657,-0.00000748,
 -0.00002849,0.00000412,-0.00001598,0.00001493,0.00000220,-0.00002153,-
 0.00003376,-0.00001761,-0.00002369,0.05769208,-0.04738479,0.04623636,-
 0.00055297,-0.00049322,-0.00062677,0.00105975,-0.00098018,0.00064429,-
 0.00015206,0.00005874,-0.00015672,-0.00004653,-0.00003983,-0.00008902,
 -0.00000914,0.00000528,-0.00000400,-0.00002434,0.00000707,-0.00000567,
 -0.00001781,0.00001618,0.00001296,-0.00000148,0.00006136,0.00006733,-0
 .00463762,-0.00032903,-0.00411972,-0.00174729,-0.02815264,-0.00413257,
 -0.07281164,-0.06853573,-0.01561132,0.00396818,0.03120662,0.00474328,-
 0.00076091,0.00410006,-0.00406112,-0.00042024,0.00094128,0.00007996,0.
 00003537,-0.00003191,-0.00000149,-0.00002305,0.00000508,0.00001676,-0.
 00000583,0.00000127,0.00000300,-0.00001414,0.00000293,0.00000053,0.000
 02688,-0.00001580,0.00001428,0.00029556,0.00042203,0.00125541,0.075633
 02,-0.00037273,-0.00025849,-0.00021170,0.00106007,-0.00001444,0.000324
 03,-0.00017151,0.00000779,-0.00005300,-0.00006220,-0.00003760,-0.00005
 116,-0.00001174,0.00000010,-0.00002754,-0.00002292,0.00000769,-0.00000
 767,-0.00002104,0.00002480,0.00001944,0.00001865,0.00006167,0.00006919
 ,-0.00164227,0.00121798,-0.00083483,-0.00013428,-0.00433204,-0.0004871
 3,-0.06768945,-0.30820519,-0.03831606,0.00644915,-0.02553874,0.0013364
 9,0.00242156,0.00026374,0.00047667,0.00013390,0.00022726,0.00005792,0.
 00002019,-0.00003449,-0.00002869,-0.00001969,0.00000897,0.00001535,-0.
 00001089,0.00000157,0.00000254,-0.00001696,0.00000111,-0.00000162,0.00
 002289,-0.00001503,0.00001331,-0.00047716,0.00047702,-0.00000488,0.060
 97074,0.33689442,-0.00010696,-0.00015281,-0.00028673,0.00047299,-0.000
 43054,0.00013300,-0.00000953,0.00000657,0.00000648,0.00000546,0.000027
 78,0.00004269,-0.00001892,-0.00000209,-0.00000782,-0.00000865,0.000001
 26,-0.00000224,-0.00000726,0.00001095,0.00000292,0.00001000,0.00000822
 ,0.00000825,-0.00435894,-0.00042738,0.00547959,-0.00247018,-0.01082185
 ,0.00431797,-0.01601594,-0.03845096,-0.04869229,0.00372201,0.01029143,
 -0.00262739,-0.00392870,0.00115310,0.00922388,-0.00040396,0.00018007,-
 0.00050506,-0.00001797,-0.00000380,-0.00001209,0.00000156,0.00000191,0
 .00000275,-0.00000467,0.00000170,-0.00000139,-0.00000817,-0.00000302,-
 0.00000076,0.00000471,-0.00000658,0.00000138,0.00122280,0.00030035,-0.
 00254794,0.02134879,0.03788467,0.03649417,0.00003143,-0.00036307,-0.00
 018298,-0.00018869,0.00168568,0.00052171,-0.00032949,-0.00031394,-0.00
 022276,-0.00000508,-0.00003841,-0.00002945,-0.00003237,0.00001675,-0.0
 0002356,-0.00000817,0.00000804,0.00001135,-0.00001644,0.00001510,-0.00
 003048,-0.00008824,0.00011305,0.00011540,-0.00265387,-0.00332828,-0.00
 435751,0.00014057,-0.00086986,0.00007709,0.00312447,-0.00256554,-0.002
 92128,0.01091058,-0.00325815,0.00549447,-0.21600850,0.12657916,-0.0580
 8607,-0.01537348,0.01865935,-0.00685848,-0.00000746,-0.00002111,-0.000
 00986,-0.00001163,0.00001498,0.00000875,-0.00001194,0.00000243,0.00000
 339,-0.00002831,0.00000641,-0.00000309,0.00001786,-0.00001583,0.000008
 17,-0.00023574,0.00008785,0.00064156,0.00025054,-0.00021278,-0.0001174
 0,0.22032400,0.00018698,0.00003926,0.00004893,-0.00068504,0.00051697,-
 0.00007154,-0.00010218,-0.00013159,-0.00002718,0.00001216,0.00002097,-
 0.00002631,0.00000168,0.00001935,0.00001251,0.00000166,0.00000013,0.00
 000571,0.00000379,0.00000244,-0.00002099,-0.00004523,0.00000712,0.0000
 0539,-0.00203839,-0.00026058,-0.00151059,-0.00008382,-0.00050765,-0.00
 008208,-0.00086222,-0.00383556,-0.00123353,0.02151452,-0.03283752,0.00
 626545,0.12553042,-0.15458221,0.04030741,-0.00924212,0.01076664,-0.003
 14238,-0.00001427,-0.00000841,0.00003296,-0.00000262,-0.00000294,-0.00
 000026,0.00000399,-0.00000274,0.00000168,0.00000021,0.00000158,0.00000
 205,-0.00000547,-0.00000341,0.00000006,0.00020392,0.00015381,0.0002157
 3,0.00089339,-0.00068559,0.00028069,-0.13575347,0.18087227,-0.00017314
 ,-0.00032316,-0.00016351,0.00031442,0.00074059,-0.00001152,-0.00023696
 ,0.00000538,-0.00005433,-0.00003401,-0.00001964,-0.00012465,0.00001130
 ,-0.00000698,0.00000993,-0.00001056,-0.00001237,-0.00001026,-0.0000182
 0,0.00001211,0.00000360,-0.00001581,-0.00000021,0.00006212,-0.00441734
 ,-0.00139325,0.00544043,0.00018552,-0.00045240,-0.00022560,-0.00292225
 ,-0.00196841,0.00922937,0.00729109,-0.00300284,-0.00165883,-0.05831446
 ,0.04043742,-0.06091111,-0.00835378,0.00731323,0.00345607,0.00005971,0
 .00001473,0.00000787,-0.00000423,0.00000320,0.00000355,-0.00000233,0.0
 0000366,-0.00000035,-0.00000766,0.00000983,-0.00000638,0.00000778,-0.0
 0000993,0.00000341,0.00058964,0.00010575,-0.00165204,-0.00001451,-0.00
 016533,0.00053235,0.06470045,-0.04151616,0.04864374,-0.00016534,-0.001
 39893,-0.00013445,0.00001643,0.00235478,0.00257105,0.00028138,-0.00013
 144,-0.00035634,0.00012417,0.00004164,0.00011080,0.00004282,-0.0000482
 9,0.00000268,0.00002150,-0.00001508,-0.00002238,-0.00002103,-0.0000361
 6,-0.00004523,-0.00002602,-0.00003144,-0.00002633,0.00751140,0.0225803
 8,0.00337445,-0.00278511,0.00284451,-0.00358564,-0.00158517,0.00110046
 ,-0.00053024,-0.00389394,-0.00239193,-0.00464566,0.00290341,-0.0279103
 6,-0.00174196,-0.06353697,-0.04137984,-0.01200040,0.00002002,0.0000173
 5,-0.00005174,0.00002119,-0.00001247,-0.00001354,0.00000830,-0.0000040
 1,-0.00000761,0.00001324,-0.00000081,0.00000715,-0.00004874,0.00002852
 ,-0.00003878,0.00049468,0.00135450,-0.00006762,-0.00004425,-0.00023151
 ,0.00068893,0.00019996,0.00048210,0.00136534,0.06044808,-0.00150350,0.
 00215327,0.00038257,-0.00151952,-0.00215653,-0.00174333,0.00007041,0.0
 0016543,0.00006862,-0.00000863,-0.00000168,-0.00005016,-0.00002280,0.0
 0001447,0.00000746,-0.00000729,0.00000780,0.00000936,0.00000580,-0.000
 00076,0.00004017,0.00000320,0.00002634,-0.00003326,-0.00286278,-0.0164
 8283,-0.00282617,0.00380156,-0.00032898,0.00054587,0.00007184,0.000870
 39,0.00011315,-0.00145195,0.00098082,-0.00134999,0.00162544,-0.0046441
 7,0.00007025,-0.03998604,-0.33444435,-0.04070841,-0.00000943,-0.000016
 69,0.00004178,-0.00000624,-0.00000041,0.00000493,0.00000088,0.00000355
 ,0.00000264,0.00000070,-0.00000430,-0.00000018,0.00001952,0.00000900,0
 .00001860,-0.00044714,-0.00065169,-0.00024971,-0.00011369,-0.00007252,
 0.00015035,-0.00044837,0.00045765,0.00022478,0.04278803,0.35411622,-0.
 00072203,-0.00069277,-0.00038799,0.00125477,0.00028554,-0.00331416,0.0
 0033087,-0.00020923,0.00016097,0.00012907,0.00008779,0.00013906,0.0000
 4047,-0.00002457,-0.00003992,0.00001351,-0.00001553,-0.00001084,0.0000
 2223,0.00002704,-0.00002830,0.00001528,-0.00017153,-0.00005007,0.00334
 472,0.00723012,0.00505575,-0.00366438,0.00043468,0.00573310,-0.0004265
 4,0.00051507,-0.00017111,-0.00454613,-0.00111716,0.00599678,0.00077912
 ,-0.01076205,0.00061926,-0.01345326,-0.04175065,-0.04556072,-0.0000281
 3,-0.00001210,-0.00004053,0.00002086,-0.00001542,-0.00001289,0.0000033
 9,-0.00000930,-0.00000366,0.00002089,-0.00000487,0.00000119,-0.0000503
 6,0.00001419,-0.00001261,-0.00012876,0.00046762,0.00058200,0.00063633,
 -0.00000998,-0.00156173,0.00126057,0.00045244,-0.00257388,0.01514750,0
 .04528067,0.03548032\\0.00000009,0.00000021,-0.00000018,0.00000011,-0.
 00000019,-0.00000024,0.00000001,-0.00000011,-0.00000016,-0.00000015,0.
 00000010,0.00000021,0.,-0.00000016,0.00000012,-0.00000004,-0.00000028,
 -0.00000012,-0.00000007,-0.00000003,0.00000014,0.00000003,-0.00000010,
 0.00000003,0.00000005,0.00000015,0.00000022,-0.00000023,0.00000003,-0.
 00000017,0.00000049,-0.00000005,-0.00000002,-0.00000027,0.00000025,0.0
 0000007,0.00000019,0.00000029,-0.00000027,-0.00000005,0.,-0.00000003,0
 .00000007,-0.00000011,0.00000005,-0.00000010,-0.00000021,0.00000009,-0
 .00000006,-0.00000023,0.00000015,0.,-0.00000010,0.00000007,0.00000008,
 0.,-0.00000002,-0.00000013,0.00000010,0.00000014,-0.00000016,0.0000001
 4,0.00000009,0.00000002,0.00000019,-0.00000006,0.00000012,0.00000012,-
 0.00000012\\\@


 YOU SHOULDN'T LET PEOPLE DRIVE YOU CRAZY
 WHEN YOU KNOW IT'S WITHIN WALKING DISTANCE.
 Job cpu time:       0 days  0 hours  0 minutes 54.4 seconds.
 Elapsed time:       0 days  0 hours  1 minutes  7.1 seconds.
 File lengths (MBytes):  RWF=    144 Int=      0 D2E=      0 Chk=      7 Scr=      1
 Normal termination of Gaussian 16 at Sat Nov 16 06:57:01 2024.
