 Entering Gaussian System, Link 0=g16
 Input=/Volumes/SSD-PSM960U3-UW/CoMFA_calc/SKFLCXNDKRUHTA-UHFFFAOYSA-N/opt1.gjf
 Output=/Volumes/SSD-PSM960U3-UW/CoMFA_calc/SKFLCXNDKRUHTA-UHFFFAOYSA-N/opt1.log
 Initial command:
 /Applications/g16/l1.exe "/Users/mac_poclab/PycharmProjects/CoMFA_model/Gau-17743.inp" -scrdir="/Users/mac_poclab/PycharmProjects/CoMFA_model/"
 Entering Link 1 = /Applications/g16/l1.exe PID=     17744.
  
 Copyright (c) 1988,1990,1992,1993,1995,1998,2003,2009,2016,
            Gaussian, Inc.  All Rights Reserved.
  
 This is part of the Gaussian(R) 16 program.  It is based on
 the Gaussian(R) 09 system (copyright 2009, Gaussian, Inc.),
 the Gaussian(R) 03 system (copyright 2003, Gaussian, Inc.),
 the Gaussian(R) 98 system (copyright 1998, Gaussian, Inc.),
 the Gaussian(R) 94 system (copyright 1995, Gaussian, Inc.),
 the Gaussian 92(TM) system (copyright 1992, Gaussian, Inc.),
 the Gaussian 90(TM) system (copyright 1990, Gaussian, Inc.),
 the Gaussian 88(TM) system (copyright 1988, Gaussian, Inc.),
 the Gaussian 86(TM) system (copyright 1986, Carnegie Mellon
 University), and the Gaussian 82(TM) system (copyright 1983,
 Carnegie Mellon University). Gaussian is a federally registered
 trademark of Gaussian, Inc.
  
 This software contains proprietary and confidential information,
 including trade secrets, belonging to Gaussian, Inc.
  
 This software is provided under written license and may be
 used, copied, transmitted, or stored only in accord with that
 written license.
  
 The following legend is applicable only to US Government
 contracts under FAR:
  
                    RESTRICTED RIGHTS LEGEND
  
 Use, reproduction and disclosure by the US Government is
 subject to restrictions as set forth in subparagraphs (a)
 and (c) of the Commercial Computer Software - Restricted
 Rights clause in FAR 52.227-19.
  
 Gaussian, Inc.
 340 Quinnipiac St., Bldg. 40, Wallingford CT 06492
  
  
 ---------------------------------------------------------------
 Warning -- This program may not be used in any manner that
 competes with the business of Gaussian, Inc. or will provide
 assistance to any competitor of Gaussian, Inc.  The licensee
 of this program is prohibited from giving any competitor of
 Gaussian, Inc. access to this program.  By using this program,
 the user acknowledges that Gaussian, Inc. is engaged in the
 business of creating and licensing software in the field of
 computational chemistry and represents and warrants to the
 licensee that it is not a competitor of Gaussian, Inc. and that
 it will not use this program in any manner prohibited above.
 ---------------------------------------------------------------
  

 Cite this work as:
 Gaussian 16, Revision A.03,
 M. J. Frisch, G. W. Trucks, H. B. Schlegel, G. E. Scuseria, 
 M. A. Robb, J. R. Cheeseman, G. Scalmani, V. Barone, 
 G. A. Petersson, H. Nakatsuji, X. Li, M. Caricato, A. V. Marenich, 
 J. Bloino, B. G. Janesko, R. Gomperts, B. Mennucci, H. P. Hratchian, 
 J. V. Ortiz, A. F. Izmaylov, J. L. Sonnenberg, D. Williams-Young, 
 F. Ding, F. Lipparini, F. Egidi, J. Goings, B. Peng, A. Petrone, 
 T. Henderson, D. Ranasinghe, V. G. Zakrzewski, J. Gao, N. Rega, 
 G. Zheng, W. Liang, M. Hada, M. Ehara, K. Toyota, R. Fukuda, 
 J. Hasegawa, M. Ishida, T. Nakajima, Y. Honda, O. Kitao, H. Nakai, 
 T. Vreven, K. Throssell, J. A. Montgomery, Jr., J. E. Peralta, 
 F. Ogliaro, M. J. Bearpark, J. J. Heyd, E. N. Brothers, K. N. Kudin, 
 V. N. Staroverov, T. A. Keith, R. Kobayashi, J. Normand, 
 K. Raghavachari, A. P. Rendell, J. C. Burant, S. S. Iyengar, 
 J. Tomasi, M. Cossi, J. M. Millam, M. Klene, C. Adamo, R. Cammi, 
 J. W. Ochterski, R. L. Martin, K. Morokuma, O. Farkas, 
 J. B. Foresman, and D. J. Fox, Gaussian, Inc., Wallingford CT, 2016.
 
 ******************************************
 Gaussian 16:  EM64M-G16RevA.03 25-Dec-2016
                16-Nov-2024 
 ******************************************
 %nprocshared=30
 Will use up to   30 processors via shared memory.
 %mem=30GB
 %chk= 1.chk
 -------------------------------
 # freq opt=tight b3lyp 6-31g(d)
 -------------------------------
 1/7=10,18=20,19=15,26=3,38=1/1,3;
 2/9=110,12=2,17=6,18=5,40=1/2;
 3/5=1,6=6,7=1,11=2,25=1,30=1,71=1,74=-5/1,2,3;
 4//1;
 5/5=2,38=5/2;
 6/7=2,8=2,9=2,10=2,28=1/1;
 7//1,2,3,16;
 1/7=10,18=20,19=15,26=3/3(2);
 2/9=110/2;
 99//99;
 2/9=110/2;
 3/5=1,6=6,7=1,11=2,25=1,30=1,71=1,74=-5/1,2,3;
 4/5=5,16=3,69=1/1;
 5/5=2,38=5/2;
 7//1,2,3,16;
 1/7=10,18=20,19=15,26=3/3(-5);
 2/9=110/2;
 6/7=2,8=2,9=2,10=2,19=2,28=1/1;
 99/9=1/99;
 ---------
 good luck
 ---------
 Symbolic Z-matrix:
 Charge =  0 Multiplicity = 1
 O                    -0.51967  -1.8645   -1.54307 
 C                    -0.35952  -0.92473  -0.7687 
 C                     1.01638  -0.54321  -0.36393 
 C                     2.0452   -0.66219  -1.3053 
 C                     3.35278  -0.32087  -0.95761 
 C                     3.63675   0.12641   0.33267 
 C                     2.6175    0.22461   1.28038 
 C                     1.30729  -0.11536   0.93728 
 C                    -1.54941  -0.1973   -0.26364 
 C                    -2.73506  -0.9096   -0.08648 
 C                    -3.84195  -0.22088   0.37162 
 N                    -3.83837   1.10125   0.64821 
 C                    -2.68417   1.7702    0.4407 
 C                    -1.5214    1.17447  -0.01402 
 H                     1.82928  -1.02228  -2.30935 
 H                     4.15027  -0.41121  -1.69113 
 H                     4.6574    0.38669   0.60352 
 H                     2.84728   0.55568   2.29045 
 H                     0.53294  -0.06123   1.698 
 H                    -2.79349  -1.97167  -0.30137 
 H                    -4.79029  -0.72639   0.53131 
 H                    -2.7237    2.83539   0.65196 
 H                    -0.63603   1.77671  -0.18148 
 

 GradGradGradGradGradGradGradGradGradGradGradGradGradGradGradGradGradGrad
 Berny optimization.
 Initialization pass.
                           ----------------------------
                           !    Initial Parameters    !
                           ! (Angstroms and Degrees)  !
 --------------------------                            --------------------------
 ! Name  Definition              Value          Derivative Info.                !
 --------------------------------------------------------------------------------
 ! R1    R(1,2)                  1.2282         estimate D2E/DX2                !
 ! R2    R(2,3)                  1.4841         estimate D2E/DX2                !
 ! R3    R(2,9)                  1.4833         estimate D2E/DX2                !
 ! R4    R(3,4)                  1.3996         estimate D2E/DX2                !
 ! R5    R(3,8)                  1.4003         estimate D2E/DX2                !
 ! R6    R(4,5)                  1.3954         estimate D2E/DX2                !
 ! R7    R(4,15)                 1.0883         estimate D2E/DX2                !
 ! R8    R(5,6)                  1.3948         estimate D2E/DX2                !
 ! R9    R(5,16)                 1.0873         estimate D2E/DX2                !
 ! R10   R(6,7)                  1.3952         estimate D2E/DX2                !
 ! R11   R(6,17)                 1.0876         estimate D2E/DX2                !
 ! R12   R(7,8)                  1.3964         estimate D2E/DX2                !
 ! R13   R(7,18)                 1.0875         estimate D2E/DX2                !
 ! R14   R(8,19)                 1.0869         estimate D2E/DX2                !
 ! R15   R(9,10)                 1.3945         estimate D2E/DX2                !
 ! R16   R(9,14)                 1.3946         estimate D2E/DX2                !
 ! R17   R(10,11)                1.3818         estimate D2E/DX2                !
 ! R18   R(10,20)                1.0852         estimate D2E/DX2                !
 ! R19   R(11,12)                1.3508         estimate D2E/DX2                !
 ! R20   R(11,21)                1.0865         estimate D2E/DX2                !
 ! R21   R(12,13)                1.3501         estimate D2E/DX2                !
 ! R22   R(13,14)                1.3834         estimate D2E/DX2                !
 ! R23   R(13,22)                1.0867         estimate D2E/DX2                !
 ! R24   R(14,23)                1.0838         estimate D2E/DX2                !
 ! A1    A(1,2,3)              119.3108         estimate D2E/DX2                !
 ! A2    A(1,2,9)              119.0349         estimate D2E/DX2                !
 ! A3    A(3,2,9)              121.6541         estimate D2E/DX2                !
 ! A4    A(2,3,4)              118.4382         estimate D2E/DX2                !
 ! A5    A(2,3,8)              121.6405         estimate D2E/DX2                !
 ! A6    A(4,3,8)              119.8863         estimate D2E/DX2                !
 ! A7    A(3,4,5)              120.0294         estimate D2E/DX2                !
 ! A8    A(3,4,15)             120.1874         estimate D2E/DX2                !
 ! A9    A(5,4,15)             119.7831         estimate D2E/DX2                !
 ! A10   A(4,5,6)              119.9807         estimate D2E/DX2                !
 ! A11   A(4,5,16)             119.9261         estimate D2E/DX2                !
 ! A12   A(6,5,16)             120.0916         estimate D2E/DX2                !
 ! A13   A(5,6,7)              120.1443         estimate D2E/DX2                !
 ! A14   A(5,6,17)             119.8798         estimate D2E/DX2                !
 ! A15   A(7,6,17)             119.9711         estimate D2E/DX2                !
 ! A16   A(6,7,8)              120.0928         estimate D2E/DX2                !
 ! A17   A(6,7,18)             119.8651         estimate D2E/DX2                !
 ! A18   A(8,7,18)             120.0384         estimate D2E/DX2                !
 ! A19   A(3,8,7)              119.8431         estimate D2E/DX2                !
 ! A20   A(3,8,19)             121.1722         estimate D2E/DX2                !
 ! A21   A(7,8,19)             118.9724         estimate D2E/DX2                !
 ! A22   A(2,9,10)             118.3486         estimate D2E/DX2                !
 ! A23   A(2,9,14)             121.8193         estimate D2E/DX2                !
 ! A24   A(10,9,14)            119.7873         estimate D2E/DX2                !
 ! A25   A(9,10,11)            117.9447         estimate D2E/DX2                !
 ! A26   A(9,10,20)            121.369          estimate D2E/DX2                !
 ! A27   A(11,10,20)           120.6862         estimate D2E/DX2                !
 ! A28   A(10,11,12)           123.6152         estimate D2E/DX2                !
 ! A29   A(10,11,21)           121.0664         estimate D2E/DX2                !
 ! A30   A(12,11,21)           115.3182         estimate D2E/DX2                !
 ! A31   A(11,12,13)           117.1153         estimate D2E/DX2                !
 ! A32   A(12,13,14)           123.7609         estimate D2E/DX2                !
 ! A33   A(12,13,22)           115.1325         estimate D2E/DX2                !
 ! A34   A(14,13,22)           121.1056         estimate D2E/DX2                !
 ! A35   A(9,14,13)            117.7462         estimate D2E/DX2                !
 ! A36   A(9,14,23)            122.3666         estimate D2E/DX2                !
 ! A37   A(13,14,23)           119.877          estimate D2E/DX2                !
 ! D1    D(1,2,3,4)             35.219          estimate D2E/DX2                !
 ! D2    D(1,2,3,8)           -142.6253         estimate D2E/DX2                !
 ! D3    D(9,2,3,4)           -144.6495         estimate D2E/DX2                !
 ! D4    D(9,2,3,8)             37.5062         estimate D2E/DX2                !
 ! D5    D(1,2,9,10)            32.0673         estimate D2E/DX2                !
 ! D6    D(1,2,9,14)          -145.4955         estimate D2E/DX2                !
 ! D7    D(3,2,9,10)          -148.0639         estimate D2E/DX2                !
 ! D8    D(3,2,9,14)            34.3733         estimate D2E/DX2                !
 ! D9    D(2,3,4,5)           -179.589          estimate D2E/DX2                !
 ! D10   D(2,3,4,15)             0.3087         estimate D2E/DX2                !
 ! D11   D(8,3,4,5)             -1.7058         estimate D2E/DX2                !
 ! D12   D(8,3,4,15)           178.1919         estimate D2E/DX2                !
 ! D13   D(2,3,8,7)            179.4976         estimate D2E/DX2                !
 ! D14   D(2,3,8,19)             0.7841         estimate D2E/DX2                !
 ! D15   D(4,3,8,7)              1.684          estimate D2E/DX2                !
 ! D16   D(4,3,8,19)          -177.0295         estimate D2E/DX2                !
 ! D17   D(3,4,5,6)              0.6378         estimate D2E/DX2                !
 ! D18   D(3,4,5,16)          -179.8226         estimate D2E/DX2                !
 ! D19   D(15,4,5,6)          -179.2603         estimate D2E/DX2                !
 ! D20   D(15,4,5,16)            0.2793         estimate D2E/DX2                !
 ! D21   D(4,5,6,7)              0.453          estimate D2E/DX2                !
 ! D22   D(4,5,6,17)           179.6582         estimate D2E/DX2                !
 ! D23   D(16,5,6,7)          -179.0859         estimate D2E/DX2                !
 ! D24   D(16,5,6,17)            0.1193         estimate D2E/DX2                !
 ! D25   D(5,6,7,8)             -0.4722         estimate D2E/DX2                !
 ! D26   D(5,6,7,18)           178.8284         estimate D2E/DX2                !
 ! D27   D(17,6,7,8)          -179.6766         estimate D2E/DX2                !
 ! D28   D(17,6,7,18)           -0.3761         estimate D2E/DX2                !
 ! D29   D(6,7,8,3)             -0.5983         estimate D2E/DX2                !
 ! D30   D(6,7,8,19)           178.1435         estimate D2E/DX2                !
 ! D31   D(18,7,8,3)          -179.8976         estimate D2E/DX2                !
 ! D32   D(18,7,8,19)           -1.1558         estimate D2E/DX2                !
 ! D33   D(2,9,10,11)         -179.3622         estimate D2E/DX2                !
 ! D34   D(2,9,10,20)            0.5464         estimate D2E/DX2                !
 ! D35   D(14,9,10,11)          -1.7483         estimate D2E/DX2                !
 ! D36   D(14,9,10,20)         178.1603         estimate D2E/DX2                !
 ! D37   D(2,9,14,13)          179.245          estimate D2E/DX2                !
 ! D38   D(2,9,14,23)            0.4103         estimate D2E/DX2                !
 ! D39   D(10,9,14,13)           1.7165         estimate D2E/DX2                !
 ! D40   D(10,9,14,23)        -177.1183         estimate D2E/DX2                !
 ! D41   D(9,10,11,12)           0.3978         estimate D2E/DX2                !
 ! D42   D(9,10,11,21)        -179.7618         estimate D2E/DX2                !
 ! D43   D(20,10,11,12)       -179.5115         estimate D2E/DX2                !
 ! D44   D(20,10,11,21)          0.3289         estimate D2E/DX2                !
 ! D45   D(10,11,12,13)          0.9483         estimate D2E/DX2                !
 ! D46   D(21,11,12,13)       -178.9005         estimate D2E/DX2                !
 ! D47   D(11,12,13,14)         -0.9815         estimate D2E/DX2                !
 ! D48   D(11,12,13,22)        178.6679         estimate D2E/DX2                !
 ! D49   D(12,13,14,9)          -0.334          estimate D2E/DX2                !
 ! D50   D(12,13,14,23)        178.531          estimate D2E/DX2                !
 ! D51   D(22,13,14,9)        -179.9633         estimate D2E/DX2                !
 ! D52   D(22,13,14,23)         -1.0983         estimate D2E/DX2                !
 --------------------------------------------------------------------------------
 Trust Radius=3.00D-01 FncErr=1.00D-07 GrdErr=1.00D-06 EigMax=2.50D+02 EigMin=1.00D-04
 Number of steps in this run=    123 maximum allowed number of steps=    138.
 GradGradGradGradGradGradGradGradGradGradGradGradGradGradGradGradGradGrad

                          Input orientation:                          
 ---------------------------------------------------------------------
 Center     Atomic      Atomic             Coordinates (Angstroms)
 Number     Number       Type             X           Y           Z
 ---------------------------------------------------------------------
      1          8           0       -0.519666   -1.864502   -1.543066
      2          6           0       -0.359524   -0.924727   -0.768697
      3          6           0        1.016381   -0.543207   -0.363931
      4          6           0        2.045196   -0.662186   -1.305297
      5          6           0        3.352777   -0.320874   -0.957608
      6          6           0        3.636752    0.126410    0.332666
      7          6           0        2.617496    0.224614    1.280380
      8          6           0        1.307286   -0.115364    0.937279
      9          6           0       -1.549409   -0.197301   -0.263641
     10          6           0       -2.735063   -0.909597   -0.086479
     11          6           0       -3.841953   -0.220877    0.371615
     12          7           0       -3.838365    1.101252    0.648206
     13          6           0       -2.684165    1.770199    0.440695
     14          6           0       -1.521404    1.174468   -0.014017
     15          1           0        1.829282   -1.022282   -2.309348
     16          1           0        4.150267   -0.411214   -1.691130
     17          1           0        4.657399    0.386687    0.603517
     18          1           0        2.847278    0.555680    2.290447
     19          1           0        0.532937   -0.061225    1.698000
     20          1           0       -2.793485   -1.971666   -0.301372
     21          1           0       -4.790294   -0.726390    0.531305
     22          1           0       -2.723696    2.835389    0.651960
     23          1           0       -0.636028    1.776712   -0.181484
 ---------------------------------------------------------------------
                    Distance matrix (angstroms):
                    1          2          3          4          5
     1  O    0.000000
     2  C    1.228198   0.000000
     3  C    2.344274   1.484085   0.000000
     4  C    2.842642   2.477811   1.399566   0.000000
     5  C    4.209675   3.765834   2.420874   1.395403   0.000000
     6  C    4.975732   4.276460   2.792844   2.416166   1.394816
     7  C    4.709356   3.792407   2.420099   2.792788   2.418013
     8  C    3.542506   2.518666   1.400294   2.423360   2.795866
     9  C    2.340269   1.483259   2.590943   3.771253   4.952604
    10  C    2.818062   2.471606   3.779491   4.939393   6.177965
    11  C    4.171942   3.731357   4.924260   6.137207   7.317170
    12  N    4.960961   4.267850   5.224675   6.445322   7.504239
    13  C    4.672410   3.758884   4.437715   5.597485   6.540069
    14  C    3.546380   2.515179   3.084348   4.214420   5.184983
    15  H    2.610379   2.678431   2.162167   1.088304   2.154115
    16  H    4.893081   4.631716   3.405895   2.154803   1.087293
    17  H    6.039675   5.363981   3.880421   3.401075   2.154018
    18  H    5.647071   4.672638   3.406679   3.880194   3.402020
    19  H    3.855423   2.761651   2.172000   3.415827   3.882160
    20  H    2.592979   2.690472   4.069335   5.112283   6.397835
    21  H    4.882272   4.621803   5.878136   7.078217   8.287998
    22  H    5.636033   4.663266   5.141510   6.229464   7.033934
    23  H    3.889201   2.778317   2.854079   3.794752   4.573052
                    6          7          8          9         10
     6  C    0.000000
     7  C    1.395238   0.000000
     8  C    2.418765   1.396407   0.000000
     9  C    5.230357   4.463755   3.099940   0.000000
    10  C    6.469082   5.639559   4.244935   1.394463   0.000000
    11  C    7.486865   6.538256   5.181290   2.379047   1.381807
    12  N    7.545015   6.545707   5.295417   2.785144   2.408433
    13  C    6.532052   5.585831   4.442254   2.377986   2.731631
    14  C    5.274959   4.439390   3.251172   1.394578   2.412788
    15  H    3.400982   3.881002   3.411095   4.034980   5.078099
    16  H    2.156035   3.403459   3.883118   5.879608   7.087387
    17  H    1.087577   2.155369   3.403926   6.294241   7.536905
    18  H    2.154170   1.087492   2.157067   5.140156   6.241742
    19  H    3.396029   2.145110   1.086850   2.864039   3.818890
    20  H    6.793517   6.050149   4.668665   2.167376   1.085165
    21  H    8.472416   7.506056   6.141551   3.378640   2.153879
    22  H    6.920680   5.978243   5.003715   3.378533   3.817112
    23  H    4.609175   3.889919   2.933948   2.176635   3.410459
                   11         12         13         14         15
    11  C    0.000000
    12  N    1.350756   0.000000
    13  C    2.304263   1.350085   0.000000
    14  C    2.735077   2.410852   1.383355   0.000000
    15  H    6.323980   6.736375   5.977616   4.617505   0.000000
    16  H    8.256314   8.460395   7.484163   6.123312   2.478421
    17  H    8.524195   8.525879   7.472562   6.259357   4.297467
    18  H    7.002197   6.905970   5.957642   4.977834   4.968339
    19  H    4.574325   4.643458   3.909562   2.945888   4.320067
    20  H    2.148827   3.381760   3.816303   3.405719   5.128672
    21  H    1.086460   2.064003   3.267560   3.820508   7.209414
    22  H    3.266474   2.061488   1.086658   2.155850   6.661875
    23  H    3.817622   3.376328   2.140564   1.083805   4.294173
                   16         17         18         19         20
    16  H    0.000000
    17  H    2.481780   0.000000
    18  H    4.299491   2.480087   0.000000
    19  H    4.969283   4.290653   2.467334   0.000000
    20  H    7.251354   7.867422   6.702478   4.325778   0.000000
    21  H    9.218036   9.513310   7.941712   5.490028   2.496259
    22  H    7.954990   7.776828   6.238386   4.482213   4.901172
    23  H    5.474913   5.528903   4.442385   2.876969   4.326584
                   21         22         23
    21  H    0.000000
    22  H    4.119667   0.000000
    23  H    4.902195   2.484710   0.000000
 Stoichiometry    C12H9NO
 Framework group  C1[X(C12H9NO)]
 Deg. of freedom    63
 Full point group                 C1      NOp   1
 Largest Abelian subgroup         C1      NOp   1
 Largest concise Abelian subgroup C1      NOp   1
                         Standard orientation:                         
 ---------------------------------------------------------------------
 Center     Atomic      Atomic             Coordinates (Angstroms)
 Number     Number       Type             X           Y           Z
 ---------------------------------------------------------------------
      1          8           0       -0.034814    2.305429   -0.047221
      2          6           0       -0.020577    1.077530   -0.024179
      3          6           0        1.280917    0.365245   -0.059831
      4          6           0        2.373931    0.940815    0.598065
      5          6           0        3.615300    0.303816    0.578535
      6          6           0        3.770077   -0.900347   -0.108158
      7          6           0        2.688271   -1.465477   -0.784184
      8          6           0        1.443865   -0.832134   -0.767329
      9          6           0       -1.307951    0.343774    0.041609
     10          6           0       -2.423625    0.907300   -0.576643
     11          6           0       -3.621689    0.223224   -0.498711
     12          7           0       -3.770395   -0.953153    0.148255
     13          6           0       -2.679610   -1.460653    0.760921
     14          6           0       -1.435772   -0.855532    0.741732
     15          1           0        2.259745    1.886334    1.124717
     16          1           0        4.462603    0.751013    1.092636
     17          1           0        4.739703   -1.392585   -0.126971
     18          1           0        2.818804   -2.394625   -1.333989
     19          1           0        0.621508   -1.272328   -1.325184
     20          1           0       -2.359769    1.854162   -1.102911
     21          1           0       -4.521741    0.613903   -0.965264
     22          1           0       -2.840800   -2.395913    1.290196
     23          1           0       -0.607601   -1.306695    1.275790
 ---------------------------------------------------------------------
 Rotational constants (GHZ):           1.7119989           0.4104951           0.3569969
 Standard basis: 6-31G(d) (6D, 7F)
 There are   228 symmetry adapted cartesian basis functions of A   symmetry.
 There are   228 symmetry adapted basis functions of A   symmetry.
   228 basis functions,   428 primitive gaussians,   228 cartesian basis functions
    48 alpha electrons       48 beta electrons
       nuclear repulsion energy       779.1501854297 Hartrees.
 NAtoms=   23 NActive=   23 NUniq=   23 SFac= 1.00D+00 NAtFMM=   60 NAOKFM=F Big=F
 Integral buffers will be    131072 words long.
 Raffenetti 2 integral format.
 Two-electron integral symmetry is turned on.
 One-electron integrals computed using PRISM.
 NBasis=   228 RedAO= T EigKep=  4.72D-04  NBF=   228
 NBsUse=   228 1.00D-06 EigRej= -1.00D+00 NBFU=   228
 ExpMin= 1.61D-01 ExpMax= 5.48D+03 ExpMxC= 8.25D+02 IAcc=3 IRadAn=         5 AccDes= 0.00D+00
 Harris functional with IExCor=  402 and IRadAn=       5 diagonalized for initial guess.
 HarFok:  IExCor=  402 AccDes= 0.00D+00 IRadAn=         5 IDoV= 1 UseB2=F ITyADJ=14
 ICtDFT=  3500011 ScaDFX=  1.000000  1.000000  1.000000  1.000000
 FoFCou: FMM=F IPFlag=           0 FMFlag=      100000 FMFlg1=           0
         NFxFlg=           0 DoJE=T BraDBF=F KetDBF=T FulRan=T
         wScrn=  0.000000 ICntrl=       500 IOpCl=  0 I1Cent=   200000004 NGrid=           0
         NMat0=    1 NMatS0=      1 NMatT0=    0 NMatD0=    1 NMtDS0=    0 NMtDT0=    0
 Petite list used in FoFCou.
 Requested convergence on RMS density matrix=1.00D-08 within 128 cycles.
 Requested convergence on MAX density matrix=1.00D-06.
 Requested convergence on             energy=1.00D-06.
 No special actions if energy rises.
 Integral accuracy reduced to 1.0D-05 until final iterations.
 Initial convergence to 1.0D-05 achieved.  Increase integral accuracy.
 SCF Done:  E(RB3LYP) =  -592.663632027     A.U. after   15 cycles
            NFock= 15  Conv=0.74D-08     -V/T= 2.0094

 **********************************************************************

            Population analysis using the SCF density.

 **********************************************************************

 Orbital symmetries:
       Occupied  (A) (A) (A) (A) (A) (A) (A) (A) (A) (A) (A) (A)
                 (A) (A) (A) (A) (A) (A) (A) (A) (A) (A) (A) (A)
                 (A) (A) (A) (A) (A) (A) (A) (A) (A) (A) (A) (A)
                 (A) (A) (A) (A) (A) (A) (A) (A) (A) (A) (A) (A)
       Virtual   (A) (A) (A) (A) (A) (A) (A) (A) (A) (A) (A) (A)
                 (A) (A) (A) (A) (A) (A) (A) (A) (A) (A) (A) (A)
                 (A) (A) (A) (A) (A) (A) (A) (A) (A) (A) (A) (A)
                 (A) (A) (A) (A) (A) (A) (A) (A) (A) (A) (A) (A)
                 (A) (A) (A) (A) (A) (A) (A) (A) (A) (A) (A) (A)
                 (A) (A) (A) (A) (A) (A) (A) (A) (A) (A) (A) (A)
                 (A) (A) (A) (A) (A) (A) (A) (A) (A) (A) (A) (A)
                 (A) (A) (A) (A) (A) (A) (A) (A) (A) (A) (A) (A)
                 (A) (A) (A) (A) (A) (A) (A) (A) (A) (A) (A) (A)
                 (A) (A) (A) (A) (A) (A) (A) (A) (A) (A) (A) (A)
                 (A) (A) (A) (A) (A) (A) (A) (A) (A) (A) (A) (A)
                 (A) (A) (A) (A) (A) (A) (A) (A) (A) (A) (A) (A)
                 (A) (A) (A) (A) (A) (A) (A) (A) (A) (A) (A) (A)
                 (A) (A) (A) (A) (A) (A) (A) (A) (A) (A) (A) (A)
                 (A) (A) (A) (A) (A) (A) (A) (A) (A) (A) (A) (A)
 The electronic state is 1-A.
 Alpha  occ. eigenvalues --  -19.14308 -14.33964 -10.28200 -10.23061 -10.22904
 Alpha  occ. eigenvalues --  -10.22002 -10.21065 -10.20956 -10.20901 -10.20716
 Alpha  occ. eigenvalues --  -10.20666 -10.20540 -10.20521 -10.20385  -1.04222
 Alpha  occ. eigenvalues --   -0.94402  -0.86969  -0.82388  -0.77510  -0.76868
 Alpha  occ. eigenvalues --   -0.75921  -0.67698  -0.64006  -0.62678  -0.61676
 Alpha  occ. eigenvalues --   -0.57163  -0.54038  -0.50237  -0.49334  -0.47863
 Alpha  occ. eigenvalues --   -0.46714  -0.45752  -0.44112  -0.44090  -0.43517
 Alpha  occ. eigenvalues --   -0.42141  -0.40811  -0.39108  -0.37561  -0.37018
 Alpha  occ. eigenvalues --   -0.36062  -0.35636  -0.29209  -0.27520  -0.26962
 Alpha  occ. eigenvalues --   -0.26608  -0.26237  -0.25011
 Alpha virt. eigenvalues --   -0.07549  -0.02807  -0.02098  -0.00991   0.04201
 Alpha virt. eigenvalues --    0.08534   0.10651   0.13206   0.13390   0.13647
 Alpha virt. eigenvalues --    0.14766   0.16075   0.16574   0.17517   0.17597
 Alpha virt. eigenvalues --    0.18364   0.21562   0.25071   0.26851   0.28446
 Alpha virt. eigenvalues --    0.29682   0.29749   0.30363   0.32593   0.33761
 Alpha virt. eigenvalues --    0.37256   0.39638   0.44672   0.45853   0.47983
 Alpha virt. eigenvalues --    0.49555   0.51071   0.51997   0.52601   0.54165
 Alpha virt. eigenvalues --    0.55023   0.56368   0.56860   0.57341   0.57864
 Alpha virt. eigenvalues --    0.58519   0.58975   0.59582   0.60337   0.60488
 Alpha virt. eigenvalues --    0.61160   0.62125   0.62638   0.63158   0.64955
 Alpha virt. eigenvalues --    0.66125   0.67007   0.69888   0.71958   0.73439
 Alpha virt. eigenvalues --    0.75056   0.77210   0.80734   0.81208   0.82148
 Alpha virt. eigenvalues --    0.82501   0.82765   0.84247   0.84914   0.85900
 Alpha virt. eigenvalues --    0.86048   0.86911   0.89211   0.89519   0.91957
 Alpha virt. eigenvalues --    0.93157   0.94682   0.95880   0.98251   0.99992
 Alpha virt. eigenvalues --    1.01904   1.03550   1.07129   1.07504   1.10189
 Alpha virt. eigenvalues --    1.12151   1.12735   1.13745   1.16532   1.17229
 Alpha virt. eigenvalues --    1.20914   1.22033   1.23966   1.25320   1.26492
 Alpha virt. eigenvalues --    1.29507   1.35972   1.40426   1.41659   1.42569
 Alpha virt. eigenvalues --    1.43739   1.44335   1.46964   1.47701   1.48498
 Alpha virt. eigenvalues --    1.49219   1.49829   1.50358   1.51715   1.53051
 Alpha virt. eigenvalues --    1.63923   1.68570   1.74551   1.75940   1.77151
 Alpha virt. eigenvalues --    1.77380   1.79206   1.80607   1.83842   1.86587
 Alpha virt. eigenvalues --    1.88077   1.89597   1.90733   1.94911   1.96359
 Alpha virt. eigenvalues --    1.98192   2.01250   2.02592   2.04675   2.05336
 Alpha virt. eigenvalues --    2.09983   2.12951   2.13311   2.13742   2.14846
 Alpha virt. eigenvalues --    2.15874   2.17196   2.18532   2.25281   2.28290
 Alpha virt. eigenvalues --    2.28912   2.29593   2.30242   2.31889   2.33459
 Alpha virt. eigenvalues --    2.36286   2.39129   2.47792   2.51608   2.55662
 Alpha virt. eigenvalues --    2.56813   2.58344   2.59238   2.62555   2.64124
 Alpha virt. eigenvalues --    2.67352   2.68147   2.69101   2.72842   2.73095
 Alpha virt. eigenvalues --    2.73571   2.75188   2.80643   2.83610   2.89385
 Alpha virt. eigenvalues --    2.96289   2.99891   3.11857   3.16169   3.38357
 Alpha virt. eigenvalues --    3.41884   3.98390   4.02777   4.07609   4.09736
 Alpha virt. eigenvalues --    4.10182   4.13748   4.15191   4.24528   4.30472
 Alpha virt. eigenvalues --    4.31900   4.34394   4.44891   4.62262   4.72440
          Condensed to atoms (all electrons):
               1          2          3          4          5          6
     1  O    8.062753   0.552959  -0.096920   0.003090   0.000669  -0.000009
     2  C    0.552959   4.725597   0.291357  -0.024879   0.005434   0.000411
     3  C   -0.096920   0.291357   4.971229   0.496978  -0.020208  -0.034608
     4  C    0.003090  -0.024879   0.496978   4.961155   0.507529  -0.033605
     5  C    0.000669   0.005434  -0.020208   0.507529   4.889805   0.541250
     6  C   -0.000009   0.000411  -0.034608  -0.033605   0.541250   4.846954
     7  C   -0.000076   0.004484  -0.016338  -0.042062  -0.026678   0.550813
     8  C    0.001831  -0.044735   0.516042  -0.056858  -0.042364  -0.037797
     9  C   -0.097713   0.275669  -0.112163   0.008118  -0.000102  -0.000007
    10  C    0.003975  -0.028028   0.008430  -0.000243   0.000001   0.000000
    11  C    0.000667   0.006199  -0.000113   0.000001  -0.000000   0.000000
    12  N   -0.000003   0.000250  -0.000004   0.000000   0.000000   0.000000
    13  C   -0.000097   0.005151   0.000089   0.000012   0.000000  -0.000000
    14  C    0.002207  -0.046068  -0.004281   0.000204  -0.000017  -0.000003
    15  H    0.009318  -0.007087  -0.045178   0.359388  -0.042596   0.004487
    16  H    0.000002  -0.000147   0.003804  -0.039087   0.359902  -0.043065
    17  H    0.000000   0.000005   0.000537   0.004625  -0.042793   0.360151
    18  H    0.000001  -0.000141   0.003638   0.000815   0.004517  -0.042253
    19  H    0.000030  -0.007868  -0.043422   0.005484   0.000321   0.004528
    20  H    0.010320  -0.007424   0.000613  -0.000014  -0.000000   0.000000
    21  H   -0.000000  -0.000117   0.000002  -0.000000   0.000000   0.000000
    22  H    0.000001  -0.000116   0.000001  -0.000000  -0.000000   0.000000
    23  H    0.000032  -0.007829   0.006916  -0.000215  -0.000018  -0.000013
               7          8          9         10         11         12
     1  O   -0.000076   0.001831  -0.097713   0.003975   0.000667  -0.000003
     2  C    0.004484  -0.044735   0.275669  -0.028028   0.006199   0.000250
     3  C   -0.016338   0.516042  -0.112163   0.008430  -0.000113  -0.000004
     4  C   -0.042062  -0.056858   0.008118  -0.000243   0.000001   0.000000
     5  C   -0.026678  -0.042364  -0.000102   0.000001  -0.000000   0.000000
     6  C    0.550813  -0.037797  -0.000007   0.000000   0.000000   0.000000
     7  C    4.864584   0.521315   0.000098   0.000012   0.000000  -0.000000
     8  C    0.521315   4.987003  -0.005881   0.000208  -0.000013  -0.000002
     9  C    0.000098  -0.005881   4.993637   0.484781  -0.015508  -0.043899
    10  C    0.000012   0.000208   0.484781   5.055769   0.452872  -0.026872
    11  C    0.000000  -0.000013  -0.015508   0.452872   4.828761   0.453868
    12  N   -0.000000  -0.000002  -0.043899  -0.026872   0.453868   6.683088
    13  C   -0.000011   0.000017  -0.011992  -0.043096  -0.065210   0.465348
    14  C   -0.000087  -0.003019   0.509407  -0.052620  -0.042936  -0.031031
    15  H    0.000292   0.005639   0.000666  -0.000017  -0.000000   0.000000
    16  H    0.004537   0.000791   0.000002  -0.000000   0.000000   0.000000
    17  H   -0.042699   0.005019  -0.000000   0.000000  -0.000000  -0.000000
    18  H    0.358912  -0.039275   0.000006  -0.000000  -0.000000   0.000000
    19  H   -0.041090   0.355496   0.006442  -0.000220  -0.000007  -0.000011
    20  H    0.000000  -0.000028  -0.043602   0.350854  -0.036714   0.004339
    21  H    0.000000   0.000000   0.003167  -0.061464   0.378952  -0.053194
    22  H    0.000000  -0.000005   0.002962   0.000499   0.005519  -0.052917
    23  H    0.000121   0.003673  -0.040804   0.006333  -0.000049   0.004461
              13         14         15         16         17         18
     1  O   -0.000097   0.002207   0.009318   0.000002   0.000000   0.000001
     2  C    0.005151  -0.046068  -0.007087  -0.000147   0.000005  -0.000141
     3  C    0.000089  -0.004281  -0.045178   0.003804   0.000537   0.003638
     4  C    0.000012   0.000204   0.359388  -0.039087   0.004625   0.000815
     5  C    0.000000  -0.000017  -0.042596   0.359902  -0.042793   0.004517
     6  C   -0.000000  -0.000003   0.004487  -0.043065   0.360151  -0.042253
     7  C   -0.000011  -0.000087   0.000292   0.004537  -0.042699   0.358912
     8  C    0.000017  -0.003019   0.005639   0.000791   0.005019  -0.039275
     9  C   -0.011992   0.509407   0.000666   0.000002  -0.000000   0.000006
    10  C   -0.043096  -0.052620  -0.000017  -0.000000   0.000000  -0.000000
    11  C   -0.065210  -0.042936  -0.000000   0.000000  -0.000000  -0.000000
    12  N    0.465348  -0.031031   0.000000   0.000000  -0.000000   0.000000
    13  C    4.808425   0.459401   0.000001   0.000000   0.000000   0.000000
    14  C    0.459401   5.083556  -0.000034  -0.000000   0.000000  -0.000006
    15  H    0.000001  -0.000034   0.560531  -0.005004  -0.000162   0.000017
    16  H    0.000000  -0.000000  -0.005004   0.583087  -0.005486  -0.000175
    17  H    0.000000   0.000000  -0.000162  -0.005486   0.587046  -0.005539
    18  H    0.000000  -0.000006   0.000017  -0.000175  -0.005539   0.585191
    19  H    0.000094   0.003112  -0.000135   0.000016  -0.000171  -0.005079
    20  H    0.000017   0.006351  -0.000003  -0.000000   0.000000  -0.000000
    21  H    0.005478   0.000477  -0.000000  -0.000000   0.000000  -0.000000
    22  H    0.378990  -0.063406  -0.000000  -0.000000   0.000000  -0.000000
    23  H   -0.035316   0.346309  -0.000012  -0.000000   0.000000  -0.000004
              19         20         21         22         23
     1  O    0.000030   0.010320  -0.000000   0.000001   0.000032
     2  C   -0.007868  -0.007424  -0.000117  -0.000116  -0.007829
     3  C   -0.043422   0.000613   0.000002   0.000001   0.006916
     4  C    0.005484  -0.000014  -0.000000  -0.000000  -0.000215
     5  C    0.000321  -0.000000   0.000000  -0.000000  -0.000018
     6  C    0.004528   0.000000   0.000000   0.000000  -0.000013
     7  C   -0.041090   0.000000   0.000000   0.000000   0.000121
     8  C    0.355496  -0.000028   0.000000  -0.000005   0.003673
     9  C    0.006442  -0.043602   0.003167   0.002962  -0.040804
    10  C   -0.000220   0.350854  -0.061464   0.000499   0.006333
    11  C   -0.000007  -0.036714   0.378952   0.005519  -0.000049
    12  N   -0.000011   0.004339  -0.053194  -0.052917   0.004461
    13  C    0.000094   0.000017   0.005478   0.378990  -0.035316
    14  C    0.003112   0.006351   0.000477  -0.063406   0.346309
    15  H   -0.000135  -0.000003  -0.000000  -0.000000  -0.000012
    16  H    0.000016  -0.000000  -0.000000  -0.000000  -0.000000
    17  H   -0.000171   0.000000   0.000000   0.000000   0.000000
    18  H   -0.005079  -0.000000  -0.000000  -0.000000  -0.000004
    19  H    0.574824  -0.000013  -0.000000  -0.000004  -0.000415
    20  H   -0.000013   0.550926  -0.001803   0.000026  -0.000074
    21  H   -0.000000  -0.001803   0.579420  -0.000174   0.000025
    22  H   -0.000004   0.000026  -0.000174   0.582458  -0.001721
    23  H   -0.000415  -0.000074   0.000025  -0.001721   0.562587
 Mulliken charges:
               1
     1  O   -0.453036
     2  C    0.306922
     3  C    0.073598
     4  C   -0.150435
     5  C   -0.134652
     6  C   -0.117233
     7  C   -0.136128
     8  C   -0.167057
     9  C    0.086717
    10  C   -0.151173
    11  C    0.033710
    12  N   -0.403420
    13  C    0.032700
    14  C   -0.167517
    15  H    0.159889
    16  H    0.140823
    17  H    0.139467
    18  H    0.139377
    19  H    0.148089
    20  H    0.166229
    21  H    0.149231
    22  H    0.147888
    23  H    0.156013
 Sum of Mulliken charges =  -0.00000
 Mulliken charges with hydrogens summed into heavy atoms:
               1
     1  O   -0.453036
     2  C    0.306922
     3  C    0.073598
     4  C    0.009454
     5  C    0.006171
     6  C    0.022234
     7  C    0.003248
     8  C   -0.018969
     9  C    0.086717
    10  C    0.015055
    11  C    0.182942
    12  N   -0.403420
    13  C    0.180588
    14  C   -0.011504
 Electronic spatial extent (au):  <R**2>=           3027.2940
 Charge=             -0.0000 electrons
 Dipole moment (field-independent basis, Debye):
    X=              2.4518    Y=             -1.9294    Z=             -0.0199  Tot=              3.1200
 Quadrupole moment (field-independent basis, Debye-Ang):
   XX=            -77.9347   YY=            -82.1227   ZZ=            -77.4365
   XY=             -6.1120   XZ=              3.5854   YZ=              0.2852
 Traceless Quadrupole moment (field-independent basis, Debye-Ang):
   XX=              1.2299   YY=             -2.9580   ZZ=              1.7281
   XY=             -6.1120   XZ=              3.5854   YZ=              0.2852
 Octapole moment (field-independent basis, Debye-Ang**2):
  XXX=             75.0161  YYY=            -16.8247  ZZZ=              0.3447  XYY=              4.8002
  XXY=             23.6136  XXZ=             -3.4767  XZZ=             -5.1388  YZZ=              2.0208
  YYZ=              0.7231  XYZ=             15.7719
 Hexadecapole moment (field-independent basis, Debye-Ang**3):
 XXXX=          -3167.2371 YYYY=           -709.7034 ZZZZ=           -243.1707 XXXY=           -153.3622
 XXXZ=             89.3821 YYYX=             -2.9049 YYYZ=              0.1918 ZZZX=              3.3018
 ZZZY=             -0.9175 XXYY=           -625.8898 XXZZ=           -568.4932 YYZZ=           -137.3535
 XXYZ=              4.6761 YYXZ=             -7.8958 ZZXY=              3.8595
 N-N= 7.791501854297D+02 E-N=-2.934396970058D+03  KE= 5.871329494916D+02
 Calling FoFJK, ICntrl=      2127 FMM=F ISym2X=0 I1Cent= 0 IOpClX= 0 NMat=1 NMatS=1 NMatT=0.
 ***** Axes restored to original set *****
 -------------------------------------------------------------------
 Center     Atomic                   Forces (Hartrees/Bohr)
 Number     Number              X              Y              Z
 -------------------------------------------------------------------
      1        8          -0.001070470    0.000881896   -0.000558510
      2        6           0.003255455   -0.015977954   -0.011624703
      3        6          -0.001434557    0.004697548    0.002292116
      4        6           0.007849083   -0.000654402   -0.002467911
      5        6          -0.002302968   -0.001442284   -0.002199471
      6        6           0.002172301    0.000620432    0.001638839
      7        6          -0.000211020   -0.001514192    0.001471007
      8        6           0.005133699    0.004462910    0.003198694
      9        6           0.006336386   -0.000811861    0.001695268
     10        6          -0.001248338   -0.001874483   -0.000848805
     11        6          -0.006340002    0.015312979    0.004974698
     12        7           0.006980840   -0.002449719   -0.002829334
     13        6          -0.019688313   -0.001480198    0.003785709
     14        6           0.000897498   -0.000078869    0.001146061
     15        1          -0.002364203    0.000619841    0.002679161
     16        1          -0.000600195    0.000343369    0.000150617
     17        1          -0.000585916    0.000332524   -0.000036093
     18        1          -0.000581932   -0.000490331   -0.000409840
     19        1          -0.001516626    0.000665977   -0.002460114
     20        1           0.002893878    0.000552375   -0.000558542
     21        1          -0.000803729   -0.001208027    0.000404243
     22        1           0.000902764    0.001340201    0.000078183
     23        1           0.002326364   -0.001847730    0.000478726
 -------------------------------------------------------------------
 Cartesian Forces:  Max     0.019688313 RMS     0.004578287

 GradGradGradGradGradGradGradGradGradGradGradGradGradGradGradGradGradGrad
 Berny optimization.
 FormGI is forming the generalized inverse of G from B-inverse, IUseBI=4.
 Internal  Forces:  Max     0.012702609 RMS     0.003103352
 Search for a local minimum.
 Step number   1 out of a maximum of  123
 All quantities printed in internal units (Hartrees-Bohrs-Radians)
 Mixed Optimization -- RFO/linear search
 Second derivative matrix not updated -- first step.
 ITU=  0
     Eigenvalues ---    0.00976   0.00982   0.00987   0.01753   0.01811
     Eigenvalues ---    0.02097   0.02111   0.02122   0.02135   0.02144
     Eigenvalues ---    0.02152   0.02153   0.02155   0.02181   0.02228
     Eigenvalues ---    0.02248   0.02291   0.02321   0.02333   0.02340
     Eigenvalues ---    0.15996   0.15997   0.15998   0.15999   0.16000
     Eigenvalues ---    0.16000   0.16000   0.16000   0.16000   0.21998
     Eigenvalues ---    0.21998   0.22000   0.22824   0.23476   0.23878
     Eigenvalues ---    0.24977   0.24982   0.25000   0.25000   0.34106
     Eigenvalues ---    0.34199   0.35009   0.35094   0.35104   0.35127
     Eigenvalues ---    0.35179   0.35202   0.35225   0.35377   0.35538
     Eigenvalues ---    0.41914   0.41938   0.43584   0.44258   0.45757
     Eigenvalues ---    0.46078   0.46299   0.46438   0.47117   0.48637
     Eigenvalues ---    0.53063   0.54279   0.91841
 RFO step:  Lambda=-5.19001222D-03 EMin= 9.76475553D-03
 Linear search not attempted -- first point.
 Iteration  1 RMS(Cart)=  0.12861593 RMS(Int)=  0.00397268
 Iteration  2 RMS(Cart)=  0.00776910 RMS(Int)=  0.00008064
 Iteration  3 RMS(Cart)=  0.00002162 RMS(Int)=  0.00007984
 Iteration  4 RMS(Cart)=  0.00000000 RMS(Int)=  0.00007984
 Variable       Old X    -DE/DX   Delta X   Delta X   Delta X     New X
                                 (Linear)    (Quad)   (Total)
    R1        2.32096  -0.00018   0.00000  -0.00020  -0.00020   2.32076
    R2        2.80451   0.00817   0.00000   0.02359   0.02359   2.82811
    R3        2.80295   0.01270   0.00000   0.03659   0.03659   2.83954
    R4        2.64480   0.00232   0.00000   0.00502   0.00502   2.64981
    R5        2.64617   0.00260   0.00000   0.00568   0.00565   2.65182
    R6        2.63693  -0.00170   0.00000  -0.00365  -0.00363   2.63330
    R7        2.05660  -0.00221   0.00000  -0.00621  -0.00621   2.05038
    R8        2.63582   0.00271   0.00000   0.00574   0.00577   2.64159
    R9        2.05469  -0.00057   0.00000  -0.00160  -0.00160   2.05309
   R10        2.63662   0.00093   0.00000   0.00197   0.00198   2.63860
   R11        2.05522  -0.00048   0.00000  -0.00135  -0.00135   2.05388
   R12        2.63883  -0.00065   0.00000  -0.00136  -0.00138   2.63745
   R13        2.05506  -0.00065   0.00000  -0.00183  -0.00183   2.05323
   R14        2.05385  -0.00061   0.00000  -0.00170  -0.00170   2.05215
   R15        2.63515   0.00339   0.00000   0.00824   0.00827   2.64342
   R16        2.63537   0.00380   0.00000   0.00911   0.00913   2.64450
   R17        2.61124   0.01106   0.00000   0.02239   0.02240   2.63364
   R18        2.05066  -0.00059   0.00000  -0.00163  -0.00163   2.04903
   R19        2.55256  -0.00793   0.00000  -0.01518  -0.01520   2.53736
   R20        2.05311   0.00132   0.00000   0.00370   0.00370   2.05681
   R21        2.55129  -0.00977   0.00000  -0.01846  -0.01848   2.53281
   R22        2.61416   0.01205   0.00000   0.02454   0.02453   2.63869
   R23        2.05349   0.00130   0.00000   0.00363   0.00363   2.05711
   R24        2.04809   0.00080   0.00000   0.00222   0.00222   2.05031
    A1        2.08237   0.00518   0.00000   0.02030   0.02024   2.10261
    A2        2.07755   0.00251   0.00000   0.00981   0.00975   2.08731
    A3        2.12327  -0.00769   0.00000  -0.03014  -0.03020   2.09306
    A4        2.06714   0.00038   0.00000   0.00140   0.00145   2.06859
    A5        2.12303   0.00175   0.00000   0.00680   0.00684   2.12987
    A6        2.09241  -0.00214   0.00000  -0.00849  -0.00862   2.08379
    A7        2.09491   0.00101   0.00000   0.00434   0.00427   2.09918
    A8        2.09767  -0.00346   0.00000  -0.02004  -0.02001   2.07765
    A9        2.09061   0.00245   0.00000   0.01570   0.01573   2.10634
   A10        2.09406   0.00038   0.00000   0.00146   0.00144   2.09550
   A11        2.09311  -0.00038   0.00000  -0.00186  -0.00185   2.09126
   A12        2.09599  -0.00000   0.00000   0.00039   0.00041   2.09640
   A13        2.09691  -0.00049   0.00000  -0.00232  -0.00238   2.09454
   A14        2.09230   0.00047   0.00000   0.00258   0.00258   2.09488
   A15        2.09389   0.00003   0.00000  -0.00012  -0.00012   2.09377
   A16        2.09601  -0.00029   0.00000  -0.00127  -0.00140   2.09461
   A17        2.09204   0.00067   0.00000   0.00389   0.00389   2.09593
   A18        2.09507  -0.00038   0.00000  -0.00243  -0.00244   2.09263
   A19        2.09166   0.00155   0.00000   0.00691   0.00678   2.09844
   A20        2.11485  -0.00329   0.00000  -0.01871  -0.01865   2.09620
   A21        2.07646   0.00174   0.00000   0.01170   0.01176   2.08823
   A22        2.06557   0.00443   0.00000   0.01556   0.01555   2.08112
   A23        2.12615   0.00484   0.00000   0.01717   0.01717   2.14332
   A24        2.09068  -0.00927   0.00000  -0.03290  -0.03291   2.05777
   A25        2.05852   0.00275   0.00000   0.01399   0.01398   2.07250
   A26        2.11829  -0.00439   0.00000  -0.02523  -0.02523   2.09306
   A27        2.10637   0.00164   0.00000   0.01124   0.01124   2.11761
   A28        2.15749   0.00209   0.00000   0.00668   0.00662   2.16412
   A29        2.11301  -0.00165   0.00000  -0.00702  -0.00700   2.10601
   A30        2.01268  -0.00044   0.00000   0.00034   0.00037   2.01305
   A31        2.04405  -0.00027   0.00000  -0.00737  -0.00751   2.03654
   A32        2.16004   0.00144   0.00000   0.00389   0.00375   2.16378
   A33        2.00944   0.00027   0.00000   0.00411   0.00409   2.01354
   A34        2.11369  -0.00171   0.00000  -0.00790  -0.00790   2.10579
   A35        2.05506   0.00328   0.00000   0.01636   0.01631   2.07137
   A36        2.13570  -0.00421   0.00000  -0.02375  -0.02373   2.11197
   A37        2.09225   0.00093   0.00000   0.00739   0.00741   2.09966
    D1        0.61469  -0.00231   0.00000  -0.15076  -0.15083   0.46386
    D2       -2.48928  -0.00207   0.00000  -0.14166  -0.14165  -2.63093
    D3       -2.52461  -0.00201   0.00000  -0.13096  -0.13096  -2.65557
    D4        0.65461  -0.00177   0.00000  -0.12185  -0.12179   0.53282
    D5        0.55968  -0.00140   0.00000  -0.08542  -0.08554   0.47414
    D6       -2.53938  -0.00109   0.00000  -0.07988  -0.07982  -2.61919
    D7       -2.58420  -0.00169   0.00000  -0.10516  -0.10522  -2.68942
    D8        0.59993  -0.00139   0.00000  -0.09962  -0.09950   0.50043
    D9       -3.13442   0.00055   0.00000   0.02320   0.02313  -3.11129
   D10        0.00539   0.00050   0.00000   0.02070   0.02067   0.02605
   D11       -0.02977   0.00041   0.00000   0.01459   0.01454  -0.01524
   D12        3.11004   0.00036   0.00000   0.01209   0.01207   3.12211
   D13        3.13282  -0.00113   0.00000  -0.04398  -0.04400   3.08882
   D14        0.01369  -0.00103   0.00000  -0.03914  -0.03915  -0.02547
   D15        0.02939  -0.00094   0.00000  -0.03496  -0.03496  -0.00557
   D16       -3.08975  -0.00084   0.00000  -0.03012  -0.03012  -3.11986
   D17        0.01113   0.00024   0.00000   0.00850   0.00843   0.01957
   D18       -3.13850   0.00021   0.00000   0.00745   0.00743  -3.13106
   D19       -3.12868   0.00029   0.00000   0.01102   0.01097  -3.11771
   D20        0.00487   0.00027   0.00000   0.00997   0.00997   0.01485
   D21        0.00791  -0.00028   0.00000  -0.01094  -0.01093  -0.00302
   D22        3.13563   0.00002   0.00000   0.00105   0.00111   3.13674
   D23       -3.12564  -0.00025   0.00000  -0.00988  -0.00991  -3.13555
   D24        0.00208   0.00005   0.00000   0.00211   0.00213   0.00421
   D25       -0.00824  -0.00026   0.00000  -0.00957  -0.00951  -0.01775
   D26        3.12114   0.00021   0.00000   0.00882   0.00890   3.13004
   D27       -3.13595  -0.00057   0.00000  -0.02159  -0.02157   3.12567
   D28       -0.00656  -0.00010   0.00000  -0.00321  -0.00316  -0.00972
   D29       -0.01044   0.00085   0.00000   0.03241   0.03248   0.02204
   D30        3.10919   0.00069   0.00000   0.02729   0.02726   3.13646
   D31       -3.13980   0.00037   0.00000   0.01395   0.01406  -3.12574
   D32       -0.02017   0.00021   0.00000   0.00883   0.00885  -0.01133
   D33       -3.13046   0.00041   0.00000   0.01859   0.01863  -3.11183
   D34        0.00954   0.00038   0.00000   0.01632   0.01632   0.02585
   D35       -0.03051   0.00046   0.00000   0.01439   0.01438  -0.01613
   D36        3.10948   0.00043   0.00000   0.01212   0.01206   3.12155
   D37        3.12842  -0.00087   0.00000  -0.03456  -0.03448   3.09394
   D38        0.00716  -0.00091   0.00000  -0.03435  -0.03421  -0.02705
   D39        0.02996  -0.00090   0.00000  -0.03011  -0.02997  -0.00001
   D40       -3.09130  -0.00093   0.00000  -0.02990  -0.02970  -3.12100
   D41        0.00694   0.00031   0.00000   0.00862   0.00844   0.01538
   D42       -3.13744   0.00022   0.00000   0.00617   0.00609  -3.13134
   D43       -3.13307   0.00035   0.00000   0.01091   0.01083  -3.12224
   D44        0.00574   0.00026   0.00000   0.00846   0.00848   0.01422
   D45        0.01655  -0.00034   0.00000  -0.01351  -0.01349   0.00306
   D46       -3.12240  -0.00026   0.00000  -0.01119  -0.01125  -3.13365
   D47       -0.01713  -0.00014   0.00000  -0.00403  -0.00384  -0.02097
   D48        3.11834   0.00036   0.00000   0.01518   0.01555   3.13389
   D49       -0.00583   0.00065   0.00000   0.02523   0.02550   0.01967
   D50        3.11595   0.00062   0.00000   0.02465   0.02486   3.14081
   D51       -3.14095   0.00011   0.00000   0.00488   0.00509  -3.13586
   D52       -0.01917   0.00008   0.00000   0.00430   0.00445  -0.01472
         Item               Value     Threshold  Converged?
 Maximum Force            0.012703     0.000015     NO 
 RMS     Force            0.003103     0.000010     NO 
 Maximum Displacement     0.474084     0.000060     NO 
 RMS     Displacement     0.128758     0.000040     NO 
 Predicted change in Energy=-2.950950D-03
 GradGradGradGradGradGradGradGradGradGradGradGradGradGradGradGradGradGrad

                          Input orientation:                          
 ---------------------------------------------------------------------
 Center     Atomic      Atomic             Coordinates (Angstroms)
 Number     Number       Type             X           Y           Z
 ---------------------------------------------------------------------
      1          8           0       -0.513869   -1.867821   -1.602853
      2          6           0       -0.351404   -0.949393   -0.803911
      3          6           0        1.027238   -0.528803   -0.401207
      4          6           0        2.083861   -0.754007   -1.295105
      5          6           0        3.387443   -0.409882   -0.942911
      6          6           0        3.650877    0.140804    0.314622
      7          6           0        2.606925    0.349954    1.217968
      8          6           0        1.297266    0.029029    0.857805
      9          6           0       -1.547120   -0.226744   -0.250821
     10          6           0       -2.770936   -0.898485   -0.162583
     11          6           0       -3.881615   -0.207535    0.318319
     12          7           0       -3.859639    1.081938    0.692022
     13          6           0       -2.686302    1.720448    0.582485
     14          6           0       -1.509261    1.118416    0.133177
     15          1           0        1.871029   -1.202453   -2.259915
     16          1           0        4.199194   -0.578577   -1.645027
     17          1           0        4.668477    0.404808    0.590424
     18          1           0        2.811678    0.767915    2.199760
     19          1           0        0.490499    0.189649    1.566757
     20          1           0       -2.841756   -1.936110   -0.469223
     21          1           0       -4.846778   -0.702407    0.408970
     22          1           0       -2.694592    2.766374    0.884100
     23          1           0       -0.591216    1.692883    0.067147
 ---------------------------------------------------------------------
                    Distance matrix (angstroms):
                    1          2          3          4          5
     1  O    0.000000
     2  C    1.228093   0.000000
     3  C    2.368951   1.496569   0.000000
     4  C    2.843148   2.491979   1.402221   0.000000
     5  C    4.216793   3.780128   2.424491   1.393481   0.000000
     6  C    5.005635   4.296265   2.800762   2.418149   1.397870
     7  C    4.755513   3.811562   2.426799   2.794255   2.419908
     8  C    3.596261   2.537070   1.403284   2.422168   2.793575
     9  C    2.364050   1.502620   2.596377   3.814781   4.986225
    10  C    2.847515   2.503603   3.823575   4.987237   6.226819
    11  C    4.217721   3.777849   4.971696   6.203924   7.380437
    12  N    5.016144   4.321092   5.260342   6.530280   7.577515
    13  C    4.729782   3.808136   4.451647   5.692339   6.614795
    14  C    3.594748   2.548451   3.071273   4.296100   5.241313
    15  H    2.561675   2.668931   2.149554   1.085016   2.159208
    16  H    4.886399   4.642513   3.407474   2.151246   1.086446
    17  H    6.068939   5.383051   3.887620   3.402692   2.157750
    18  H    5.697914   4.687886   3.410386   3.880727   3.405157
    19  H    3.910034   2.761574   2.162671   3.408745   3.879453
    20  H    2.590143   2.699533   4.117554   5.132363   6.430915
    21  H    4.917288   4.662668   5.932165   7.137246   8.349583
    22  H    5.693527   4.706043   5.134416   6.322628   7.100544
    23  H    3.933636   2.792467   2.788303   3.872859   4.612110
                    6          7          8          9         10
     6  C    0.000000
     7  C    1.396285   0.000000
     8  C    2.418062   1.395677   0.000000
     9  C    5.241563   4.443648   3.063496   0.000000
    10  C    6.522846   5.690861   4.295549   1.398838   0.000000
    11  C    7.540543   6.574291   5.212276   2.402948   1.393660
    12  N    7.578655   6.529079   5.265907   2.819458   2.416133
    13  C    6.536579   5.504575   4.336533   2.404931   2.724169
    14  C    5.255061   4.325539   3.096521   1.399408   2.397329
    15  H    3.405942   3.879069   3.400872   4.083161   5.102846
    16  H    2.158329   3.405030   3.880018   5.923489   7.133211
    17  H    1.086865   2.155648   3.402611   6.303983   7.590155
    18  H    2.156680   1.086523   2.154121   5.098412   6.286742
    19  H    3.399737   2.150955   1.085949   2.762040   3.848586
    20  H    6.861651   6.144984   4.770145   2.155392   1.084301
    21  H    8.539908   7.570972   6.203687   3.398429   2.161999
    22  H    6.890784   5.835806   4.840318   3.400514   3.812160
    23  H    4.523885   3.654579   2.638164   2.167908   3.393986
                   11         12         13         14         15
    11  C    0.000000
    12  N    1.342712   0.000000
    13  C    2.283785   1.340303   0.000000
    14  C    2.724057   2.416178   1.396333   0.000000
    15  H    6.382011   6.839074   6.114888   4.747597   0.000000
    16  H    8.324175   8.553590   7.593246   6.215163   2.487502
    17  H    8.576309   8.555559   7.471529   6.235604   4.305048
    18  H    7.020790   6.846777   5.809533   4.802512   4.965468
    19  H    4.564180   4.526041   3.661175   2.629981   4.299678
    20  H    2.165526   3.390160   3.807975   3.386526   5.094622
    21  H    1.088419   2.058749   3.250844   3.811886   7.245821
    22  H    3.251656   2.057074   1.088578   2.164408   6.817721
    23  H    3.808071   3.383240   2.157712   1.084979   4.456550
                   16         17         18         19         20
    16  H    0.000000
    17  H    2.486869   0.000000
    18  H    4.303560   2.483850   0.000000
    19  H    4.965899   4.295930   2.474460   0.000000
    20  H    7.266388   7.937654   6.811500   4.446121   0.000000
    21  H    9.277061   9.581175   8.001294   5.533784   2.512640
    22  H    8.069044   7.738089   6.003649   4.153353   4.895559
    23  H    5.571274   5.440342   4.121078   2.382991   4.303744
                   21         22         23
    21  H    0.000000
    22  H    4.109756   0.000000
    23  H    4.895310   2.498797   0.000000
 Stoichiometry    C12H9NO
 Framework group  C1[X(C12H9NO)]
 Deg. of freedom    63
 Full point group                 C1      NOp   1
 Largest Abelian subgroup         C1      NOp   1
 Largest concise Abelian subgroup C1      NOp   1
                         Standard orientation:                         
 ---------------------------------------------------------------------
 Center     Atomic      Atomic             Coordinates (Angstroms)
 Number     Number       Type             X           Y           Z
 ---------------------------------------------------------------------
      1          8           0       -0.016371    2.341780   -0.028196
      2          6           0       -0.004189    1.113750   -0.025452
      3          6           0        1.293073    0.367651   -0.038360
      4          6           0        2.428935    0.990316    0.498601
      5          6           0        3.662953    0.343540    0.472756
      6          6           0        3.778476   -0.921457   -0.110750
      7          6           0        2.656093   -1.539845   -0.665247
      8          6           0        1.414324   -0.904461   -0.618217
      9          6           0       -1.302636    0.358867    0.019852
     10          6           0       -2.457014    0.953140   -0.500724
     11          6           0       -3.662684    0.258676   -0.420935
     12          7           0       -3.795813   -0.951795    0.144673
     13          6           0       -2.686692   -1.501144    0.658948
     14          6           0       -1.426269   -0.901892    0.614448
     15          1           0        2.332237    1.981558    0.929124
     16          1           0        4.536270    0.828717    0.899707
     17          1           0        4.742168   -1.423456   -0.134622
     18          1           0        2.746561   -2.518402   -1.128684
     19          1           0        0.546259   -1.388678   -1.055574
     20          1           0       -2.402190    1.937568   -0.951949
     21          1           0       -4.578072    0.687514   -0.824441
     22          1           0       -2.820484   -2.478809    1.118591
     23          1           0       -0.567318   -1.400529    1.051190
 ---------------------------------------------------------------------
 Rotational constants (GHZ):           1.7135311           0.4110656           0.3494065
 Standard basis: 6-31G(d) (6D, 7F)
 There are   228 symmetry adapted cartesian basis functions of A   symmetry.
 There are   228 symmetry adapted basis functions of A   symmetry.
   228 basis functions,   428 primitive gaussians,   228 cartesian basis functions
    48 alpha electrons       48 beta electrons
       nuclear repulsion energy       777.3808267332 Hartrees.
 NAtoms=   23 NActive=   23 NUniq=   23 SFac= 1.00D+00 NAtFMM=   60 NAOKFM=F Big=F
 Integral buffers will be    131072 words long.
 Raffenetti 2 integral format.
 Two-electron integral symmetry is turned on.
 One-electron integrals computed using PRISM.
 NBasis=   228 RedAO= T EigKep=  4.69D-04  NBF=   228
 NBsUse=   228 1.00D-06 EigRej= -1.00D+00 NBFU=   228
 Initial guess from the checkpoint file:  "1.chk"
 B after Tr=    -0.000000    0.000000    0.000000
         Rot=    0.999993    0.002524   -0.001915    0.001922 Ang=   0.42 deg.
 ExpMin= 1.61D-01 ExpMax= 5.48D+03 ExpMxC= 8.25D+02 IAcc=2 IRadAn=         4 AccDes= 0.00D+00
 Harris functional with IExCor=  402 and IRadAn=       4 diagonalized for initial guess.
 HarFok:  IExCor=  402 AccDes= 0.00D+00 IRadAn=         4 IDoV= 1 UseB2=F ITyADJ=14
 ICtDFT=  3500011 ScaDFX=  1.000000  1.000000  1.000000  1.000000
 FoFCou: FMM=F IPFlag=           0 FMFlag=      100000 FMFlg1=           0
         NFxFlg=           0 DoJE=T BraDBF=F KetDBF=T FulRan=T
         wScrn=  0.000000 ICntrl=       500 IOpCl=  0 I1Cent=   200000004 NGrid=           0
         NMat0=    1 NMatS0=      1 NMatT0=    0 NMatD0=    1 NMtDS0=    0 NMtDT0=    0
 Petite list used in FoFCou.
 Requested convergence on RMS density matrix=1.00D-08 within 128 cycles.
 Requested convergence on MAX density matrix=1.00D-06.
 Requested convergence on             energy=1.00D-06.
 No special actions if energy rises.
 Integral accuracy reduced to 1.0D-05 until final iterations.
 Initial convergence to 1.0D-05 achieved.  Increase integral accuracy.
 SCF Done:  E(RB3LYP) =  -592.666055206     A.U. after   13 cycles
            NFock= 13  Conv=0.81D-08     -V/T= 2.0096
 Calling FoFJK, ICntrl=      2127 FMM=F ISym2X=0 I1Cent= 0 IOpClX= 0 NMat=1 NMatS=1 NMatT=0.
 ***** Axes restored to original set *****
 -------------------------------------------------------------------
 Center     Atomic                   Forces (Hartrees/Bohr)
 Number     Number              X              Y              Z
 -------------------------------------------------------------------
      1        8          -0.000129314    0.003755850    0.003612787
      2        6           0.001301069   -0.004272335   -0.006087762
      3        6          -0.002344481    0.000989959    0.001074941
      4        6           0.002907925   -0.000862340    0.000164712
      5        6          -0.001314383   -0.000577607   -0.000466211
      6        6          -0.000078699    0.000181844    0.000273299
      7        6          -0.000278477    0.000422733   -0.000642792
      8        6           0.002514547   -0.000121985    0.001783127
      9        6           0.000809244    0.000128314    0.001911027
     10        6          -0.001633147    0.000612679   -0.000231349
     11        6          -0.001148276    0.001267638    0.000479788
     12        7           0.003347047   -0.001399859   -0.001645446
     13        6          -0.002640320   -0.000241012    0.001661586
     14        6          -0.001956895    0.001839181   -0.000339491
     15        1          -0.000884063   -0.000108284    0.000044190
     16        1           0.000034378    0.000182349   -0.000029266
     17        1          -0.000050306   -0.000182562    0.000004404
     18        1          -0.000150450   -0.000136856    0.000030138
     19        1           0.000875354   -0.000765238   -0.000140856
     20        1           0.000130745   -0.000343494   -0.000182201
     21        1           0.000463905   -0.001135137   -0.000262224
     22        1           0.001311978    0.000291849   -0.000634292
     23        1          -0.001087380    0.000474312   -0.000378107
 -------------------------------------------------------------------
 Cartesian Forces:  Max     0.006087762 RMS     0.001546210

 GradGradGradGradGradGradGradGradGradGradGradGradGradGradGradGradGradGrad
 Berny optimization.
 Using GEDIIS/GDIIS optimizer.
 FormGI is forming the generalized inverse of G from B-inverse, IUseBI=4.
 Internal  Forces:  Max     0.006416211 RMS     0.001428334
 Search for a local minimum.
 Step number   2 out of a maximum of  123
 All quantities printed in internal units (Hartrees-Bohrs-Radians)
 Mixed Optimization -- RFO/linear search
 Update second derivatives using D2CorX and points    1    2
 DE= -2.42D-03 DEPred=-2.95D-03 R= 8.21D-01
 TightC=F SS=  1.41D+00  RLast= 3.71D-01 DXNew= 5.0454D-01 1.1118D+00
 Trust test= 8.21D-01 RLast= 3.71D-01 DXMaxT set to 5.05D-01
 ITU=  1  0
 Use linear search instead of GDIIS.
     Eigenvalues ---    0.00968   0.00984   0.01347   0.01737   0.01792
     Eigenvalues ---    0.02108   0.02122   0.02125   0.02142   0.02149
     Eigenvalues ---    0.02152   0.02153   0.02158   0.02212   0.02248
     Eigenvalues ---    0.02276   0.02311   0.02332   0.02339   0.02440
     Eigenvalues ---    0.14642   0.15995   0.15999   0.15999   0.16000
     Eigenvalues ---    0.16000   0.16000   0.16000   0.16217   0.20855
     Eigenvalues ---    0.21998   0.22000   0.22014   0.23033   0.23557
     Eigenvalues ---    0.24689   0.24971   0.24994   0.29303   0.32633
     Eigenvalues ---    0.34137   0.35027   0.35093   0.35103   0.35127
     Eigenvalues ---    0.35186   0.35211   0.35233   0.35394   0.35594
     Eigenvalues ---    0.41845   0.41922   0.43281   0.43589   0.45752
     Eigenvalues ---    0.45928   0.46273   0.46406   0.47141   0.49041
     Eigenvalues ---    0.52368   0.54254   0.92429
 RFO step:  Lambda=-1.12147988D-03 EMin= 9.67603443D-03
 Quartic linear search produced a step of -0.10493.
 Iteration  1 RMS(Cart)=  0.07330330 RMS(Int)=  0.00103509
 Iteration  2 RMS(Cart)=  0.00190126 RMS(Int)=  0.00014061
 Iteration  3 RMS(Cart)=  0.00000204 RMS(Int)=  0.00014061
 Iteration  4 RMS(Cart)=  0.00000000 RMS(Int)=  0.00014061
 Variable       Old X    -DE/DX   Delta X   Delta X   Delta X     New X
                                 (Linear)    (Quad)   (Total)
    R1        2.32076  -0.00514   0.00002  -0.00508  -0.00506   2.31570
    R2        2.82811   0.00142  -0.00248   0.01220   0.00972   2.83782
    R3        2.83954   0.00277  -0.00384   0.02036   0.01652   2.85607
    R4        2.64981   0.00097  -0.00053   0.00377   0.00327   2.65308
    R5        2.65182   0.00146  -0.00059   0.00506   0.00449   2.65632
    R6        2.63330  -0.00140   0.00038  -0.00407  -0.00369   2.62961
    R7        2.05038   0.00018   0.00065  -0.00178  -0.00112   2.04926
    R8        2.64159   0.00001  -0.00061   0.00194   0.00130   2.64289
    R9        2.05309   0.00002   0.00017  -0.00053  -0.00037   2.05272
   R10        2.63860  -0.00028  -0.00021   0.00008  -0.00016   2.63844
   R11        2.05388  -0.00009   0.00014  -0.00071  -0.00057   2.05331
   R12        2.63745  -0.00056   0.00014  -0.00151  -0.00136   2.63609
   R13        2.05323  -0.00005   0.00019  -0.00079  -0.00060   2.05263
   R14        2.05215  -0.00086   0.00018  -0.00278  -0.00260   2.04954
   R15        2.64342   0.00087  -0.00087   0.00480   0.00396   2.64738
   R16        2.64450   0.00168  -0.00096   0.00675   0.00583   2.65032
   R17        2.63364  -0.00125  -0.00235   0.00566   0.00330   2.63693
   R18        2.04903   0.00037   0.00017   0.00035   0.00052   2.04956
   R19        2.53736  -0.00117   0.00159  -0.00756  -0.00599   2.53137
   R20        2.05681   0.00008  -0.00039   0.00154   0.00115   2.05796
   R21        2.53281  -0.00154   0.00194  -0.00927  -0.00735   2.52545
   R22        2.63869  -0.00056  -0.00257   0.00781   0.00524   2.64393
   R23        2.05711   0.00009  -0.00038   0.00154   0.00116   2.05828
   R24        2.05031  -0.00065  -0.00023  -0.00083  -0.00106   2.04925
    A1        2.10261  -0.00224  -0.00212  -0.00042  -0.00286   2.09975
    A2        2.08731  -0.00416  -0.00102  -0.01101  -0.01235   2.07496
    A3        2.09306   0.00642   0.00317   0.01229   0.01515   2.10821
    A4        2.06859  -0.00385  -0.00015  -0.01390  -0.01429   2.05429
    A5        2.12987   0.00505  -0.00072   0.01980   0.01876   2.14863
    A6        2.08379  -0.00123   0.00090  -0.00757  -0.00682   2.07697
    A7        2.09918   0.00081  -0.00045   0.00481   0.00439   2.10357
    A8        2.07765  -0.00130   0.00210  -0.01384  -0.01176   2.06589
    A9        2.10634   0.00049  -0.00165   0.00906   0.00738   2.11373
   A10        2.09550   0.00001  -0.00015   0.00002  -0.00014   2.09535
   A11        2.09126   0.00007   0.00019  -0.00001   0.00019   2.09145
   A12        2.09640  -0.00008  -0.00004  -0.00000  -0.00004   2.09636
   A13        2.09454   0.00000   0.00025  -0.00142  -0.00121   2.09333
   A14        2.09488  -0.00004  -0.00027   0.00099   0.00073   2.09561
   A15        2.09377   0.00004   0.00001   0.00043   0.00045   2.09422
   A16        2.09461   0.00025   0.00015   0.00041   0.00056   2.09518
   A17        2.09593   0.00004  -0.00041   0.00187   0.00146   2.09739
   A18        2.09263  -0.00029   0.00026  -0.00226  -0.00201   2.09062
   A19        2.09844   0.00016  -0.00071   0.00352   0.00286   2.10130
   A20        2.09620   0.00013   0.00196  -0.00621  -0.00429   2.09192
   A21        2.08823  -0.00029  -0.00123   0.00249   0.00121   2.08944
   A22        2.08112  -0.00402  -0.00163  -0.00973  -0.01163   2.06949
   A23        2.14332   0.00521  -0.00180   0.02380   0.02165   2.16497
   A24        2.05777  -0.00123   0.00345  -0.01582  -0.01251   2.04526
   A25        2.07250   0.00082  -0.00147   0.00873   0.00731   2.07981
   A26        2.09306  -0.00058   0.00265  -0.01192  -0.00930   2.08376
   A27        2.11761  -0.00024  -0.00118   0.00320   0.00200   2.11961
   A28        2.16412  -0.00076  -0.00070  -0.00126  -0.00196   2.16216
   A29        2.10601  -0.00089   0.00073  -0.00778  -0.00705   2.09896
   A30        2.01305   0.00166  -0.00004   0.00904   0.00900   2.02205
   A31        2.03654   0.00150   0.00079   0.00158   0.00234   2.03887
   A32        2.16378  -0.00040  -0.00039  -0.00035  -0.00074   2.16304
   A33        2.01354   0.00168  -0.00043   0.01062   0.01016   2.02369
   A34        2.10579  -0.00128   0.00083  -0.01014  -0.00934   2.09644
   A35        2.07137   0.00007  -0.00171   0.00695   0.00530   2.07667
   A36        2.11197   0.00076   0.00249  -0.00481  -0.00237   2.10960
   A37        2.09966  -0.00083  -0.00078  -0.00233  -0.00317   2.09649
    D1        0.46386   0.00050   0.01583  -0.01053   0.00530   0.46915
    D2       -2.63093   0.00133   0.01486   0.03150   0.04649  -2.58445
    D3       -2.65557  -0.00015   0.01374  -0.05573  -0.04211  -2.69769
    D4        0.53282   0.00068   0.01278  -0.01370  -0.00092   0.53190
    D5        0.47414   0.00014   0.00898  -0.00929  -0.00036   0.47378
    D6       -2.61919   0.00107   0.00838   0.03481   0.04336  -2.57583
    D7       -2.68942   0.00081   0.01104   0.03564   0.04650  -2.64292
    D8        0.50043   0.00173   0.01044   0.07974   0.09023   0.59066
    D9       -3.11129   0.00012  -0.00243   0.02154   0.01870  -3.09259
   D10        0.02605   0.00031  -0.00217   0.02817   0.02562   0.05167
   D11       -0.01524  -0.00052  -0.00153  -0.01859  -0.02003  -0.03526
   D12        3.12211  -0.00032  -0.00127  -0.01197  -0.01311   3.10900
   D13        3.08882  -0.00031   0.00462  -0.02976  -0.02547   3.06335
   D14       -0.02547  -0.00012   0.00411  -0.02144  -0.01760  -0.04307
   D15       -0.00557   0.00059   0.00367   0.01278   0.01641   0.01084
   D16       -3.11986   0.00078   0.00316   0.02110   0.02428  -3.09558
   D17        0.01957   0.00016  -0.00088   0.01192   0.01100   0.03056
   D18       -3.13106   0.00022  -0.00078   0.01243   0.01168  -3.11939
   D19       -3.11771  -0.00003  -0.00115   0.00524   0.00393  -3.11377
   D20        0.01485   0.00002  -0.00105   0.00575   0.00461   0.01946
   D21       -0.00302   0.00012   0.00115   0.00076   0.00195  -0.00108
   D22        3.13674  -0.00009  -0.00012  -0.00380  -0.00388   3.13285
   D23       -3.13555   0.00007   0.00104   0.00025   0.00126  -3.13429
   D24        0.00421  -0.00014  -0.00022  -0.00431  -0.00457  -0.00036
   D25       -0.01775  -0.00004   0.00100  -0.00650  -0.00547  -0.02323
   D26        3.13004  -0.00033  -0.00093  -0.01042  -0.01142   3.11862
   D27        3.12567   0.00017   0.00226  -0.00195   0.00035   3.12602
   D28       -0.00972  -0.00012   0.00033  -0.00587  -0.00559  -0.01531
   D29        0.02204  -0.00032  -0.00341  -0.00032  -0.00381   0.01823
   D30        3.13646  -0.00050  -0.00286  -0.00874  -0.01176   3.12470
   D31       -3.12574  -0.00003  -0.00148   0.00362   0.00212  -3.12362
   D32       -0.01133  -0.00021  -0.00093  -0.00481  -0.00583  -0.01715
   D33       -3.11183   0.00027  -0.00196   0.02599   0.02354  -3.08829
   D34        0.02585   0.00039  -0.00171   0.02946   0.02733   0.05318
   D35       -0.01613  -0.00043  -0.00151  -0.01486  -0.01623  -0.03236
   D36        3.12155  -0.00031  -0.00127  -0.01138  -0.01244   3.10911
   D37        3.09394  -0.00050   0.00362  -0.03301  -0.02972   3.06421
   D38       -0.02705  -0.00018   0.00359  -0.02241  -0.01909  -0.04614
   D39       -0.00001   0.00049   0.00314   0.01039   0.01344   0.01343
   D40       -3.12100   0.00080   0.00312   0.02098   0.02407  -3.09693
   D41        0.01538   0.00018  -0.00089   0.01239   0.01148   0.02686
   D42       -3.13134   0.00022  -0.00064   0.01104   0.01044  -3.12090
   D43       -3.12224   0.00006  -0.00114   0.00890   0.00763  -3.11461
   D44        0.01422   0.00009  -0.00089   0.00755   0.00659   0.02081
   D45        0.00306   0.00003   0.00142  -0.00419  -0.00274   0.00032
   D46       -3.13365   0.00000   0.00118  -0.00286  -0.00170  -3.13535
   D47       -0.02097   0.00005   0.00040  -0.00068  -0.00024  -0.02121
   D48        3.13389  -0.00048  -0.00163  -0.01276  -0.01457   3.11932
   D49        0.01967  -0.00033  -0.00268  -0.00262  -0.00542   0.01425
   D50        3.14081  -0.00063  -0.00261  -0.01317  -0.01596   3.12485
   D51       -3.13586   0.00025  -0.00053   0.01022   0.00962  -3.12624
   D52       -0.01472  -0.00005  -0.00047  -0.00033  -0.00092  -0.01564
         Item               Value     Threshold  Converged?
 Maximum Force            0.006416     0.000015     NO 
 RMS     Force            0.001428     0.000010     NO 
 Maximum Displacement     0.272820     0.000060     NO 
 RMS     Displacement     0.073837     0.000040     NO 
 Predicted change in Energy=-6.206436D-04
 GradGradGradGradGradGradGradGradGradGradGradGradGradGradGradGradGradGrad

                          Input orientation:                          
 ---------------------------------------------------------------------
 Center     Atomic      Atomic             Coordinates (Angstroms)
 Number     Number       Type             X           Y           Z
 ---------------------------------------------------------------------
      1          8           0       -0.509530   -1.799689   -1.601408
      2          6           0       -0.341710   -0.879685   -0.809527
      3          6           0        1.045265   -0.479776   -0.395386
      4          6           0        2.093491   -0.733604   -1.294204
      5          6           0        3.408766   -0.440503   -0.947073
      6          6           0        3.700290    0.077272    0.318980
      7          6           0        2.670087    0.301209    1.234355
      8          6           0        1.348199    0.035028    0.877050
      9          6           0       -1.552408   -0.180300   -0.235684
     10          6           0       -2.753199   -0.894665   -0.133753
     11          6           0       -3.894750   -0.242611    0.334053
     12          7           0       -3.929028    1.053200    0.671798
     13          6           0       -2.789769    1.740002    0.543776
     14          6           0       -1.584395    1.179058    0.107979
     15          1           0        1.850956   -1.159460   -2.261568
     16          1           0        4.208827   -0.622202   -1.658995
     17          1           0        4.728123    0.298591    0.593198
     18          1           0        2.894479    0.683109    2.226142
     19          1           0        0.553691    0.195993    1.597567
     20          1           0       -2.776172   -1.940656   -0.419558
     21          1           0       -4.832914   -0.785642    0.438682
     22          1           0       -2.838962    2.797074    0.801692
     23          1           0       -0.699339    1.798257    0.011887
 ---------------------------------------------------------------------
                    Distance matrix (angstroms):
                    1          2          3          4          5
     1  O    0.000000
     2  C    1.225417   0.000000
     3  C    2.369398   1.501712   0.000000
     4  C    2.829599   2.487259   1.403951   0.000000
     5  C    4.198640   3.778607   2.427351   1.391530   0.000000
     6  C    4.993341   4.304307   2.805312   2.416957   1.398559
     7  C    4.750294   3.826602   2.430235   2.792295   2.419589
     8  C    3.600014   2.556762   1.405662   2.420867   2.792757
     9  C    2.361190   1.511365   2.619751   3.836560   5.018667
    10  C    2.829687   2.504431   3.830002   4.986281   6.231979
    11  C    4.198836   3.786520   4.999208   6.225057   7.417667
    12  N    4.999941   4.335806   5.313425   6.582444   7.661273
    13  C    4.725539   3.832386   4.529562   5.774351   6.737883
[...]
 .00060404,0.00380252,0.00311227,0.00813228,-0.01305429,-0.00905965,-0.
 00047785,-0.00009102,0.00058139,-0.00047725,0.00015290,-0.00004421,0.0
 0022520,0.00006842,0.00014737,0.00004206,0.00000519,-0.00041059,-0.000
 58652,-0.00047059,-0.00002962,0.00126743,-0.00088969,0.00125355,0.0188
 2941,-0.31134112,-0.07323123,-0.06606644,-0.02784657,0.00794678,0.0231
 7302,-0.04809886,-0.01695358,0.01643058,0.06760777,0.00731209,0.030780
 01,-0.16865946,-0.03380859,0.07685161,0.65691760,0.00189991,0.00024689
 ,0.00110231,0.00305350,-0.01292618,-0.00300268,0.00067614,0.00003259,-
 0.00102829,-0.00010437,0.00023207,0.00014211,0.00009709,-0.00006428,0.
 00013539,0.00003996,-0.00005501,-0.00012765,-0.00017858,-0.00001353,0.
 00035949,-0.00094685,0.00033787,-0.00097432,0.01973272,-0.05848026,-0.
 08082751,-0.02676269,-0.00101144,0.01307523,0.00938719,-0.02112905,-0.
 01858764,0.02967975,0.02476479,0.02192286,0.05730624,-0.05261115,-0.09
 652341,-0.12696161,0.11861618,0.19588965,-0.00077634,-0.00068164,-0.00
 151012,0.00064460,0.00206234,0.00203672,0.00946756,0.00972210,0.020958
 72,-0.07174279,-0.02532800,-0.05302255,-0.00117633,-0.01263828,-0.0271
 3292,-0.00519187,-0.00155870,-0.00011864,-0.00102486,0.00010025,0.0003
 3366,-0.00406004,0.00022109,0.00287509,0.00022494,-0.00037924,-0.00011
 565,0.00004911,-0.00006895,-0.00008899,-0.00008499,0.00000839,0.000034
 10,0.00004723,-0.00008661,-0.00003971,-0.00000831,-0.00000998,-0.00000
 623,0.00026273,0.00004249,-0.00003270,0.07198129,-0.00132763,0.0002053
 5,0.00061270,-0.00052519,-0.00427664,0.00013258,0.00070727,0.00124449,
 -0.00579684,-0.02603842,-0.09108109,-0.11255888,-0.00034400,0.00146649
 ,-0.00491266,-0.00163798,0.00638548,-0.00215096,0.00008398,-0.00018767
 ,0.00048183,0.00050440,0.00479847,-0.00218305,0.00017359,0.00015760,-0
 .00015425,0.00004374,-0.00008771,-0.00009231,0.00000335,0.00004624,0.0
 0005042,-0.00000815,-0.00003844,-0.00002019,0.00001395,-0.00002592,0.0
 0001707,0.00009033,0.00004083,-0.00000253,0.02797701,0.08525515,-0.001
 43382,0.00133171,0.00196998,-0.00189389,-0.00054108,-0.00227648,-0.004
 46978,-0.00868808,-0.01469528,-0.05098240,-0.11207688,-0.28003811,0.00
 043941,-0.00240302,-0.00150340,-0.00071040,-0.00256318,0.00237976,0.00
 017063,0.00039722,0.00038148,0.00388226,-0.00222979,0.00019627,0.00004
 087,-0.00002626,0.00019788,-0.00004305,0.00001766,0.00006974,0.0000252
 6,-0.00000400,-0.00004455,0.00000805,0.00004923,0.00002848,-0.00003466
 ,0.00001859,-0.00000758,-0.00005151,-0.00003075,0.00001792,0.05575373,
 0.12499966,0.29440138,-0.00004383,-0.00034192,-0.00038786,-0.00004580,
 0.00102970,0.00168104,-0.00407513,-0.00270912,-0.00275110,-0.01818298,
 0.00674825,0.02086749,-0.21573644,0.03818723,0.13402972,0.00880318,-0.
 00182987,-0.00583740,0.00080412,-0.00122747,-0.00141397,-0.00014176,-0
 .00040605,-0.00093531,-0.00035734,-0.00020251,-0.00028581,-0.00010644,
 0.00016469,0.00007533,0.00002793,-0.00004980,0.00001388,-0.00005503,0.
 00003863,0.00000616,0.00002971,-0.00003349,0.00000964,-0.00007471,-0.0
 0002430,0.00001125,0.00108197,0.00041680,-0.00040805,0.22696898,-0.000
 09597,-0.00001820,-0.00004312,-0.00017495,0.00040187,0.00008504,-0.002
 04964,0.00621995,-0.00264346,-0.00529015,0.00426529,0.00504124,0.03811
 822,-0.05096845,-0.04309803,0.01056990,0.00049028,-0.00741573,-0.00171
 944,0.00486989,-0.00442052,-0.00044191,-0.00043161,-0.00021894,-0.0002
 3023,-0.00011094,0.00011862,-0.00000905,0.00004006,-0.00001485,-0.0000
 3068,0.00001044,-0.00000240,-0.00000347,-0.00003095,0.00000514,0.00001
 742,0.00001368,-0.00002846,-0.00001364,-0.00008986,0.00000614,0.000707
 94,-0.00326945,0.00187194,-0.04035822,0.04248275,0.00023424,0.00003862
 ,0.00001404,-0.00057430,0.00004392,0.00047748,-0.00165150,-0.00290739,
 0.00143741,-0.00792755,0.00201212,0.00928069,0.13385609,-0.04294252,-0
 .17059220,0.02319199,-0.00443251,-0.01361059,-0.00252614,-0.00441961,-
 0.00290695,-0.00092639,-0.00015207,-0.00029574,-0.00002579,0.00001194,
 -0.00015315,-0.00002166,-0.00000390,0.00001029,0.00000174,-0.00001977,
 0.00001354,0.00001971,0.00001585,-0.00000964,-0.00001713,0.00000708,0.
 00002936,0.00001586,0.00002283,0.00001792,0.00013579,0.00177471,-0.000
 03261,-0.14459310,0.04902799,0.17683224,-0.00014248,-0.00010304,-0.000
 04754,0.00022515,0.00016672,-0.00001419,0.00048747,0.00030680,0.000497
 93,0.00163702,-0.00085337,-0.00071883,-0.00173422,-0.00032561,0.000472
 38,-0.30896330,-0.05665662,-0.06724027,-0.01754014,-0.00577760,-0.0086
 9090,-0.00152521,0.00075145,0.00419060,-0.00005261,0.00000327,-0.00000
 576,0.00000552,0.00005012,0.00001667,0.00001643,0.00001448,0.00000216,
 -0.00005810,-0.00000532,0.00001647,0.00005070,-0.00004974,-0.00003807,
 -0.00006794,0.00002466,-0.00003896,-0.00017477,0.00005439,0.00012861,0
 .00075901,0.00027074,-0.00043794,0.32709765,-0.00021394,0.00009069,-0.
 00011240,0.00011397,-0.00115144,0.00041035,0.00034254,-0.00048812,0.00
 009053,-0.00056369,0.00501756,-0.00491766,-0.01252772,0.00115173,-0.00
 226199,-0.05662687,-0.05344894,-0.02309450,0.00634477,0.00475506,0.001
 76756,0.00048392,0.00608480,-0.00332752,0.00010933,0.00006077,-0.00006
 277,-0.00006111,-0.00001798,-0.00001033,0.00003798,-0.00004053,-0.0000
 0428,0.00001453,0.00004314,0.00000173,-0.00005290,0.00000878,0.0000218
 5,0.00003842,0.00002139,0.00002873,-0.00052359,-0.00010068,-0.00002773
 ,0.00054758,-0.00297053,0.00167175,0.06193925,0.04404281,-0.00011547,0
 .00003903,0.00023535,0.00002410,0.00037952,-0.00027387,0.00056113,-0.0
 0020917,-0.00113464,0.00021307,-0.00470775,-0.00387846,-0.02843648,-0.
 00531323,-0.00222614,-0.06732932,-0.02315197,-0.07657501,0.02031453,0.
 00473701,0.00974397,0.00324867,-0.00329377,-0.00139418,-0.00008713,-0.
 00004680,0.00001423,-0.00000812,0.00002599,0.00003082,0.00000050,0.000
 00107,-0.00000654,-0.00000496,0.00000850,0.00000327,0.00000427,-0.0000
 0004,0.00000862,-0.00001415,-0.00003192,0.00000633,-0.00138566,-0.0001
 5980,-0.00018297,0.00022334,0.00175772,0.00036961,0.07235872,0.0280672
 7,0.07466863,-0.00078216,-0.00053012,-0.00036037,0.00121588,-0.0002060
 3,-0.00113482,-0.00560560,-0.00119090,-0.00005821,-0.00115209,0.000159
 85,0.00043639,-0.00359090,0.00013322,0.00283555,0.00923370,0.00997417,
 0.02295959,-0.07059817,-0.02323753,-0.04822174,-0.00169303,-0.01198223
 ,-0.02898658,-0.00008664,-0.00010665,0.00004290,-0.00002828,0.00007428
 ,0.00004070,0.00001188,-0.00000819,-0.00000815,-0.00002994,0.00002979,
 0.00002772,0.00001444,-0.00002518,-0.00001128,-0.00008234,-0.00002152,
 0.00002093,0.00012907,0.00007085,-0.00010035,0.00034982,0.00054588,0.0
 0121251,0.00091572,0.00024474,-0.00064148,0.07068908,-0.00004610,-0.00
 035158,0.00004960,0.00047099,0.00059159,-0.00039134,-0.00197731,0.0061
 6754,-0.00222240,-0.00012560,-0.00026727,0.00029559,0.00067043,0.00611
 811,-0.00241607,-0.00173768,0.00035975,-0.00474514,-0.02363399,-0.0808
 6531,-0.10546949,0.00005244,0.00016569,-0.00493509,-0.00000545,-0.0000
 2773,0.00003444,-0.00002102,0.00002516,0.00001882,0.00002252,-0.000009
 33,-0.00001030,-0.00002935,0.00001002,0.00001121,-0.00000251,-0.000004
 72,0.00000642,0.00001463,0.00000847,0.00000449,0.00010011,-0.00099999,
 0.00043620,-0.00014033,0.00017467,-0.00029340,0.00052643,-0.00315840,0
 .00164197,0.02550409,0.07531484,-0.00042739,-0.00012320,-0.00027750,0.
 00091849,-0.00016611,0.00008498,-0.00141137,-0.00197610,0.00243699,0.0
 0059122,0.00039882,0.00048425,0.00396626,-0.00231242,0.00024559,-0.006
 47790,-0.00729404,-0.01395542,-0.04805670,-0.10571667,-0.28480195,0.00
 010844,-0.00234384,-0.00373751,-0.00008829,-0.00002245,-0.00001290,-0.
 00001184,0.00006932,0.00003131,0.00001653,0.00000184,-0.00000042,-0.00
 003975,0.00002366,0.00001980,0.00003383,-0.00004613,-0.00001967,-0.000
 11233,-0.00000520,-0.00000302,-0.00011270,0.00038108,-0.00021898,-0.00
 037217,-0.00050321,-0.00074236,0.00000853,0.00165698,0.00026315,0.0518
 4617,0.11634405,0.30001127,0.00022779,0.00041267,0.00032714,0.00000282
 ,-0.00012595,-0.00054097,0.00897725,-0.00088332,-0.00397934,0.00059567
 ,-0.00118578,-0.00165832,-0.00015018,-0.00033853,-0.00087857,-0.004102
 53,-0.00230913,-0.00278188,-0.01733685,0.00617824,0.02111965,-0.213287
 13,0.03381833,0.13669733,-0.00086852,-0.00032555,-0.00078497,0.0003735
 7,-0.00003855,0.00009461,-0.00021654,0.00022201,0.00001842,-0.00008405
 ,-0.00026640,0.00014118,-0.00010110,0.00013925,-0.00028065,-0.00141615
 ,0.00137197,-0.00107930,0.00037483,-0.00023919,-0.00034736,0.00001260,
 0.00014210,0.00006874,-0.00093622,0.00037752,0.00104888,0.00107571,0.0
 0034804,-0.00037669,0.22744344,-0.00053324,-0.00022167,-0.00086515,0.0
 0183335,-0.00286743,0.00177913,0.00883700,-0.00010281,-0.00759271,-0.0
 0183758,0.00442430,-0.00412051,-0.00017072,-0.00033485,0.00016791,-0.0
 0176833,0.00607448,-0.00290085,-0.00533479,0.00477235,0.00470367,0.034
 12060,-0.04887828,-0.04046635,0.00050465,0.00065026,0.00009463,-0.0005
 1554,-0.00019349,-0.00005224,0.00010884,-0.00028350,-0.00006204,0.0001
 2204,0.00016959,-0.00004819,-0.00018693,-0.00000373,0.00010042,0.00077
 056,-0.00008844,0.00041618,0.00043088,0.00048059,-0.00059402,0.0001785
 3,-0.00107557,0.00052113,-0.00029407,0.00010280,0.00023446,0.00055523,
 -0.00325209,0.00164906,-0.03731600,0.04102356,-0.00049977,-0.00003436,
 0.00035796,0.00211995,0.00175642,-0.00006571,0.02233315,-0.00418076,-0
 .01382201,-0.00266603,-0.00421200,-0.00325590,-0.00083977,0.00000652,-
 0.00037539,-0.00200375,-0.00265282,0.00132463,-0.00794440,0.00172230,0
 .00963407,0.13608243,-0.04085377,-0.17709036,-0.00065322,-0.00048434,0
 .00001444,-0.00038175,0.00001429,0.00023763,0.00010191,-0.00025323,-0.
 00015204,0.00037223,0.00036911,-0.00011099,-0.00045729,0.00021314,0.00
 039992,-0.00022327,-0.00020840,0.00019808,0.00138409,-0.00038505,-0.00
 062414,0.00008338,0.00045906,-0.00011133,-0.00048736,0.00010854,0.0003
 4168,0.00015028,0.00164332,0.00021478,-0.14649449,0.04631932,0.1833977
 0,0.00039223,0.00174041,0.00052854,0.00011922,-0.00238450,-0.00290945,
 0.00028776,0.00006564,0.00038768,-0.00001637,0.00005154,0.00003009,-0.
 00001788,0.00002803,0.00005762,0.00002424,0.00000882,0.00002852,0.0000
 5859,0.00004007,0.00001366,0.00013425,-0.00005661,-0.00012812,0.003425
 98,-0.02615086,-0.00777712,-0.05893897,-0.00919604,0.00140477,0.007642
 88,0.02574951,0.00606539,-0.00368793,0.00282445,0.00384508,-0.00179937
 ,-0.00067721,0.00029983,-0.00453657,-0.00245469,0.00235666,-0.00006387
 ,-0.00002117,0.00003429,0.00001510,-0.00000160,-0.00000606,0.00000835,
 0.00000243,0.00000952,0.00002447,0.00000609,0.00001872,0.00000900,-0.0
 0003105,0.00005960,0.05613190,0.00168555,0.00150069,0.00077406,0.00135
 456,-0.00183541,-0.00084531,-0.00004327,0.00017799,-0.00000780,0.00001
 535,0.00004529,-0.00002310,-0.00000362,-0.00001664,0.00003146,0.000005
 20,0.00000468,0.00000727,0.00001887,0.00000163,0.00001556,0.00000430,0
 .00000084,-0.00004571,-0.00045306,-0.01196161,-0.00454976,-0.01086107,
 -0.32158419,-0.08287073,-0.00364197,-0.00793073,-0.00184871,0.00192766
 ,0.00071844,-0.00286080,0.00037780,0.00092108,0.00019250,-0.00341732,0
 .00107490,-0.00118624,-0.00001437,0.00001375,0.00001269,-0.00000123,-0
 .00000360,0.00000051,-0.00000141,0.00000402,0.00000199,0.00000406,-0.0
 0000224,0.00000394,-0.00000428,-0.00001583,0.00003350,0.01208468,0.339
 31148,0.00089348,-0.00039906,-0.00029301,-0.00067600,0.00052949,-0.003
 73815,-0.00036311,-0.00012874,0.00014204,-0.00004326,-0.00014703,-0.00
 007868,-0.00001631,0.00003544,-0.00001558,-0.00001242,-0.00000944,-0.0
 0001046,-0.00003307,-0.00000613,-0.00004285,-0.00011065,0.00008798,0.0
 0012646,-0.00212162,0.00294167,0.00462002,0.00240402,-0.08404071,-0.06
 301905,-0.00273748,-0.00924504,-0.00083360,0.00366389,-0.00252814,0.00
 605316,0.00042587,0.00051099,-0.00000760,0.00227572,-0.00122244,0.0060
 8065,0.00004587,0.00000533,-0.00000222,-0.00002054,-0.00000131,-0.0000
 0138,-0.00000426,-0.00000712,-0.00000418,-0.00001963,-0.00000876,-0.00
 001433,0.00002951,-0.00001706,-0.00003038,-0.00254538,0.09209505,0.054
 60139,0.00003613,0.00035540,0.00026012,-0.00028603,-0.00148687,-0.0007
 6861,-0.00028247,0.00030766,0.00023819,-0.00008738,-0.00007308,-0.0001
 3763,-0.00002332,-0.00001473,0.00002152,-0.00000952,-0.00000332,-0.000
 01054,-0.00003476,-0.00000879,0.00002038,-0.00000506,0.00003919,0.0000
 4075,-0.00222364,0.00326878,0.00377914,-0.01745241,-0.01426700,0.00220
 879,-0.27160799,-0.11305051,0.02974045,0.00684781,-0.00366448,-0.00395
 738,0.00309594,0.00103867,0.00223365,0.00032552,0.00074426,0.00006493,
 0.00002255,0.00001248,-0.00000453,-0.00002944,-0.00000142,0.00000112,-
 0.00001271,-0.00000014,-0.00000420,-0.00001315,-0.00001147,-0.00001191
 ,0.00000289,0.00001478,0.00001785,0.00040283,0.00057120,-0.00080336,0.
 28144107,-0.00020826,0.00004773,0.00002107,0.00086797,0.00055964,0.000
 19956,0.00009868,-0.00020427,-0.00008497,0.00006214,0.00001408,0.00002
 806,0.00000037,0.00000801,-0.00002626,-0.00000158,0.00000238,0.0000096
 1,0.00001031,0.00002026,0.00000986,-0.00001096,0.00001990,-0.00001234,
 0.00199506,-0.00065945,-0.00307003,0.01365018,0.01126351,-0.00212468,-
 0.11204426,-0.11318286,0.00975169,-0.02837698,-0.02761243,0.00095641,-
 0.00068596,-0.00336124,-0.00367573,-0.00003655,-0.00059811,-0.00012126
 ,0.00000160,-0.00000571,0.00000059,0.00000446,0.00000018,0.00000272,-0
 .00000245,-0.00000256,0.00000181,0.00000408,-0.00000126,0.00000124,0.0
 0001777,-0.00002296,0.00002761,-0.00034377,0.00022617,0.00107267,0.126
 13137,0.13390879,0.00009744,-0.00029026,-0.00017666,-0.00006893,0.0007
 3626,0.00004315,0.00022881,-0.00003650,-0.00002867,0.00001062,-0.00001
 711,0.00005430,0.00001796,0.00000741,0.00000491,0.00000790,-0.00001285
 ,-0.00001117,-0.00001524,-0.00000387,0.00001142,0.00003942,-0.00000207
 ,-0.00012360,0.00367962,-0.00284883,0.00540909,0.00971131,0.00525028,0
 .00503813,0.03013564,0.00973883,-0.04671088,-0.01106992,-0.00548690,-0
 .00282113,0.00184535,-0.00423805,0.00878357,-0.00022610,-0.00039032,-0
 .00032008,-0.00000764,-0.00000830,0.00000102,0.00000800,0.00000888,-0.
 00000385,0.00000153,0.00000279,0.00000025,0.00000385,0.00000052,0.0000
 0340,-0.00005424,0.00002379,0.00001206,-0.00108209,0.00095552,-0.00254
 527,-0.03261400,-0.00355846,0.03449007,-0.00043648,0.00044574,0.000629
 62,0.00109910,0.00086660,-0.00036210,-0.00013770,-0.00005102,0.0001243
 3,-0.00000854,-0.00003901,-0.00006037,-0.00001518,-0.00000752,-0.00001
 181,-0.00002116,-0.00000186,0.00000210,-0.00000910,-0.00000299,-0.0000
 0195,-0.00003336,0.00002466,0.00007471,-0.00470250,0.00104330,0.003123
 97,-0.00063208,-0.00076539,-0.00018893,-0.00260715,-0.00406721,0.00243
 945,-0.00369467,-0.03523508,-0.00956598,-0.05720218,0.02131266,0.01025
 402,0.00312779,0.02669396,0.00769831,0.00002537,0.00000982,-0.00000793
 ,-0.00001144,0.00000011,-0.00000181,-0.00000394,0.00000009,-0.00000270
 ,-0.00001757,0.00000241,-0.00001517,0.00003342,0.00001862,0.00000277,0
 .00012286,0.00013530,-0.00045694,0.00007671,-0.00104497,-0.00020921,0.
 06454256,0.00041169,-0.00037151,-0.00031145,-0.00121796,0.00003133,0.0
 0032402,0.00020259,-0.00001004,-0.00006802,-0.00000961,0.00006103,0.00
 008855,0.00002550,0.00001734,0.00002621,0.00002779,0.00000432,-0.00000
 519,0.00001303,0.00000297,-0.00002515,0.00006634,-0.00005095,-0.000075
 88,0.00232574,0.00108500,-0.00208280,-0.00003744,0.00037498,0.00019551
 ,-0.00235014,0.00169253,-0.00166330,-0.01043585,-0.01825505,-0.0009043
 8,0.02040693,-0.30882676,-0.07609645,-0.00130494,-0.00790716,-0.003197
 82,-0.00003104,-0.00001303,0.00001109,0.00001827,-0.00000148,0.0000001
 1,0.00001082,-0.00000122,0.00000414,0.00002362,0.00000176,0.00002060,-
 0.00003378,-0.00002848,-0.00003398,0.00026954,-0.00022603,0.00033725,0
 .00005695,-0.00050024,-0.00030750,-0.00904040,0.33263314,0.00012105,-0
 .00014300,-0.00029020,-0.00063676,-0.00025944,0.00004787,0.00002623,-0
 .00000261,0.00000996,-0.00001124,0.00001405,0.00001595,0.00001129,0.00
 001062,0.00000775,0.00001103,0.00000022,-0.00000205,0.00002009,-0.0000
 0470,-0.00001074,0.00000241,0.00001737,0.00004286,0.00362343,-0.001850
 85,0.00567747,0.00041835,0.00014798,-0.00044094,0.00268501,-0.00113054
 ,0.00964132,-0.00327064,0.00538315,-0.00224823,0.01049958,-0.07622856,
 -0.06368015,0.00004209,-0.01041186,0.00301799,-0.00000815,-0.00000664,
 0.00000089,0.00000913,-0.00000475,-0.00000088,0.00000626,0.00000074,-0
 .00000049,0.00000031,0.00000228,0.00000449,0.00001648,-0.00000806,-0.0
 0001615,-0.00045867,0.00049323,-0.00157533,0.00013689,0.00000729,0.000
 52084,-0.01246014,0.08304940,0.05184588,0.00022158,-0.00055296,-0.0004
 7565,-0.00054480,0.00093897,-0.00034027,-0.00036652,0.00067765,0.00029
 981,0.00034406,-0.00022667,0.00001567,-0.00019538,-0.00001016,-0.00015
 558,-0.00011385,-0.00002688,0.00020626,-0.00002099,0.00020319,-0.00007
 478,-0.00104712,0.00095149,-0.00115205,0.00500020,0.00048148,-0.000850
 80,0.00188722,0.00048504,0.00151825,0.00040619,0.00181648,0.00039183,-
 0.00397264,0.00242955,0.00367164,-0.01555302,-0.01892038,-0.00039040,-
 0.24907357,-0.13389632,0.02408049,-0.00000708,-0.00002025,0.00000463,0
 .00000792,0.00004807,-0.00002840,0.00000859,-0.00002711,0.00002293,0.0
 0002011,0.00001263,0.00000604,-0.00062974,0.00049318,-0.00005651,0.000
 26131,0.00025708,0.00022567,-0.00018355,-0.00008823,-0.00044005,0.0005
 0522,0.00060235,-0.00078404,0.26304588,0.00045640,0.00021325,-0.000084
 68,-0.00177906,0.00069943,0.00161926,0.00046883,-0.00015707,-0.0005143
 9,0.00042322,0.00016525,-0.00011105,-0.00019057,-0.00012973,-0.0001066
 7,-0.00009780,0.00003824,0.00025182,0.00035520,0.00019344,0.00012533,0
 .00034706,0.00007516,-0.00010265,-0.02597225,-0.01214544,0.00323263,0.
 00137789,-0.00463345,-0.00363424,0.00073460,-0.00120324,-0.00047931,0.
 00295580,0.00058023,-0.00256806,0.01176196,0.01211528,-0.00023513,-0.1
 3331216,-0.15056484,0.00611285,-0.00005378,-0.00000810,0.00003819,-0.0
 0000984,0.00000157,0.00001989,-0.00004990,-0.00000316,0.00001396,-0.00
 001551,0.00000232,-0.00004122,0.00003856,-0.00032880,0.00062558,-0.001
 55371,-0.00042468,0.00014513,0.00004107,0.00008045,0.00047673,-0.00029
 782,0.00028754,0.00092470,0.14437182,0.15514637,0.00033894,-0.00106985
 ,-0.00033019,-0.00213413,0.00161540,-0.00284203,-0.00046336,0.00027574
 ,0.00060477,0.00034673,-0.00021521,-0.00021014,-0.00015307,-0.00006158
 ,-0.00022865,-0.00010201,0.00003576,0.00017749,0.00011982,-0.00004911,
 -0.00011532,-0.00026933,0.00025825,0.00037159,-0.00683755,-0.00475209,
 0.00224261,0.00190053,-0.00356262,0.00610816,0.00004673,-0.00046496,-0
 .00024470,0.00360428,-0.00267209,0.00621482,0.00761298,0.00789856,0.00
 104991,0.02367746,0.00684590,-0.04057131,0.00002389,-0.00002394,-0.000
 01849,-0.00001304,0.00001301,-0.00002192,0.00002421,-0.00000252,-0.000
 00943,-0.00003427,0.00000306,-0.00001594,-0.00030516,0.00071749,-0.000
 47856,-0.00023306,-0.00037912,0.00058835,-0.00045163,0.00058355,-0.001
 63087,-0.00100425,0.00071504,-0.00256811,-0.02569472,-0.00570867,0.031
 92795\\-0.00000005,0.00000011,-0.00000011,-0.00000005,-0.00000005,-0.0
 0000015,0.,-0.00000005,-0.00000019,-0.00000009,-0.00000005,0.,0.000000
 06,-0.00000006,0.00000014,0.,-0.00000025,-0.00000011,-0.00000005,-0.00
 000019,0.00000008,0.00000014,0.,0.00000020,0.,0.00000013,0.00000006,-0
 .00000010,0.00000006,-0.00000005,-0.00000007,0.00000041,-0.00000013,0.
 00000031,0.00000008,0.00000004,-0.00000049,0.00000002,0.,0.00000025,0.
 00000004,-0.00000001,-0.00000005,0.,-0.00000004,-0.00000002,-0.0000001
 2,0.00000004,0.,-0.00000025,0.00000010,0.00000004,-0.00000024,0.000000
 07,-0.00000008,-0.00000013,0.00000004,-0.00000007,0.00000014,-0.000000
 12,0.00000003,0.00000021,-0.00000007,0.00000018,0.00000010,0.00000012,
 0.00000013,0.00000006,0.00000010\\\@


 One man practicing sportsmanship is far better than 50 preaching it.
 -- Knute K. Rockne
 Job cpu time:       0 days  0 hours  0 minutes 56.4 seconds.
 Elapsed time:       0 days  0 hours  1 minutes  8.8 seconds.
 File lengths (MBytes):  RWF=    144 Int=      0 D2E=      0 Chk=      8 Scr=      1
 Normal termination of Gaussian 16 at Sat Nov 16 07:05:14 2024.
