
Host: pocllab-ws

Timers On : Wed Apr  3 15:58:50 2024
Timers Off: Wed Apr  3 15:58:51 2024

Wall Time:        0.99 seconds

                                                       Time (seconds)
Module                                       User      System        Wall        Calls

--------------------------------------------------------------------------------------

**************************************************************************************

Host: pocllab-ws

Timers On : Wed Apr  3 15:59:31 2024
Timers Off: Wed Apr  3 15:59:32 2024

Wall Time:        1.07 seconds

                                                       Time (seconds)
Module                                       User      System        Wall        Calls

--------------------------------------------------------------------------------------

**************************************************************************************

Host: pocllab-ws

Timers On : Wed Apr  3 16:00:46 2024
Timers Off: Wed Apr  3 16:00:46 2024

Wall Time:        0.84 seconds

                                                       Time (seconds)
Module                                       User      System        Wall        Calls

--------------------------------------------------------------------------------------

**************************************************************************************

Host: pocllab-ws

Timers On : Wed Apr  3 16:00:54 2024
Timers Off: Wed Apr  3 16:00:55 2024

Wall Time:        0.80 seconds

                                                       Time (seconds)
Module                                       User      System        Wall        Calls

--------------------------------------------------------------------------------------

**************************************************************************************

Host: pocllab-ws

Timers On : Wed Apr  3 16:02:29 2024
Timers Off: Wed Apr  3 16:02:30 2024

Wall Time:        1.00 seconds

                                                       Time (seconds)
Module                                       User      System        Wall        Calls

--------------------------------------------------------------------------------------

**************************************************************************************

Host: pocllab-ws

Timers On : Wed Apr  3 16:02:43 2024
Timers Off: Wed Apr  3 16:02:44 2024

Wall Time:        1.45 seconds

                                                       Time (seconds)
Module                                       User      System        Wall        Calls

--------------------------------------------------------------------------------------

**************************************************************************************

Host: pocllab-ws

Timers On : Sat May  4 19:41:14 2024
Timers Off: Sat May  4 19:41:19 2024

Wall Time:        4.71 seconds

                                                       Time (seconds)
Module                                       User      System        Wall        Calls

--------------------------------------------------------------------------------------

**************************************************************************************

Host: pocllab-ws

Timers On : Sat May  4 19:42:44 2024
Timers Off: Sat May  4 19:42:48 2024

Wall Time:        3.84 seconds

                                                       Time (seconds)
Module                                       User      System        Wall        Calls

--------------------------------------------------------------------------------------

**************************************************************************************

Host: pocllab-ws

Timers On : Sat May  4 19:43:38 2024
Timers Off: Sat May  4 19:43:41 2024

Wall Time:        3.57 seconds

                                                       Time (seconds)
Module                                       User      System        Wall        Calls

--------------------------------------------------------------------------------------

**************************************************************************************

Host: pocllab-ws

Timers On : Sat May  4 19:43:52 2024
Timers Off: Sat May  4 19:43:56 2024

Wall Time:        3.98 seconds

                                                       Time (seconds)
Module                                       User      System        Wall        Calls

--------------------------------------------------------------------------------------

**************************************************************************************

Host: pocllab-ws

Timers On : Sat May  4 19:44:30 2024
Timers Off: Sat May  4 19:44:34 2024

Wall Time:        4.01 seconds

                                                       Time (seconds)
Module                                       User      System        Wall        Calls

--------------------------------------------------------------------------------------

**************************************************************************************

Host: pocllab-ws

Timers On : Sat May  4 19:44:48 2024
Timers Off: Sat May  4 19:44:52 2024

Wall Time:        3.77 seconds

                                                       Time (seconds)
Module                                       User      System        Wall        Calls

--------------------------------------------------------------------------------------

**************************************************************************************

Host: pocllab-ws

Timers On : Sat May  4 19:45:03 2024
Timers Off: Sat May  4 19:45:06 2024

Wall Time:        3.60 seconds

                                                       Time (seconds)
Module                                       User      System        Wall        Calls

--------------------------------------------------------------------------------------

**************************************************************************************

Host: pocllab-ws

Timers On : Mon May  6 20:09:33 2024
Timers Off: Mon May  6 20:09:34 2024

Wall Time:        1.21 seconds

                                                       Time (seconds)
Module                                       User      System        Wall        Calls

--------------------------------------------------------------------------------------

**************************************************************************************

Host: pocllab-ws

Timers On : Fri May 10 12:09:09 2024
Timers Off: Fri May 10 12:09:10 2024

Wall Time:        0.93 seconds

                                                       Time (seconds)
Module                                       User      System        Wall        Calls

--------------------------------------------------------------------------------------

**************************************************************************************

Host: pocllab-ws

Timers On : Fri May 10 14:12:27 2024
Timers Off: Fri May 10 14:12:29 2024

Wall Time:        1.26 seconds

                                                       Time (seconds)
Module                                       User      System        Wall        Calls

--------------------------------------------------------------------------------------

**************************************************************************************

Host: pocllab-ws

Timers On : Sat May 11 14:54:22 2024
Timers Off: Sat May 11 14:54:23 2024

Wall Time:        0.68 seconds

                                                       Time (seconds)
Module                                       User      System        Wall        Calls

--------------------------------------------------------------------------------------

**************************************************************************************

Host: pocllab-ws

Timers On : Sat May 11 22:02:57 2024
Timers Off: Sat May 11 22:02:58 2024

Wall Time:        1.26 seconds

                                                       Time (seconds)
Module                                       User      System        Wall        Calls

--------------------------------------------------------------------------------------

**************************************************************************************

Host: pocllab-ws

Timers On : Sun May 12 19:56:10 2024
Timers Off: Sun May 12 19:56:11 2024

Wall Time:        1.49 seconds

                                                       Time (seconds)
Module                                       User      System        Wall        Calls

--------------------------------------------------------------------------------------

**************************************************************************************

Host: pocllab-ws

Timers On : Sun May 26 16:54:38 2024
Timers Off: Sun May 26 16:54:40 2024

Wall Time:        1.17 seconds

                                                       Time (seconds)
Module                                       User      System        Wall        Calls

--------------------------------------------------------------------------------------

**************************************************************************************

Host: pocllab-ws

Timers On : Sun May 26 17:42:29 2024
Timers Off: Sun May 26 17:42:30 2024

Wall Time:        0.99 seconds

                                                       Time (seconds)
Module                                       User      System        Wall        Calls

--------------------------------------------------------------------------------------

**************************************************************************************

Host: pocllab-ws

Timers On : Sun May 26 17:43:02 2024
Timers Off: Sun May 26 17:43:03 2024

Wall Time:        1.15 seconds

                                                       Time (seconds)
Module                                       User      System        Wall        Calls

--------------------------------------------------------------------------------------

**************************************************************************************

Host: pocllab-ws

Timers On : Sun May 26 17:44:23 2024
Timers Off: Sun May 26 17:44:24 2024

Wall Time:        1.07 seconds

                                                       Time (seconds)
Module                                       User      System        Wall        Calls

--------------------------------------------------------------------------------------

**************************************************************************************

Host: pocllab-ws

Timers On : Sun May 26 17:44:54 2024
Timers Off: Sun May 26 17:44:55 2024

Wall Time:        0.99 seconds

                                                       Time (seconds)
Module                                       User      System        Wall        Calls

--------------------------------------------------------------------------------------

**************************************************************************************

Host: pocllab-ws

Timers On : Sun May 26 18:47:17 2024
Timers Off: Sun May 26 18:47:19 2024

Wall Time:        1.50 seconds

                                                       Time (seconds)
Module                                       User      System        Wall        Calls

--------------------------------------------------------------------------------------

**************************************************************************************

Host: pocllab-ws

Timers On : Mon May 27 12:01:15 2024
Timers Off: Mon May 27 12:01:16 2024

Wall Time:        0.96 seconds

                                                       Time (seconds)
Module                                       User      System        Wall        Calls

--------------------------------------------------------------------------------------

**************************************************************************************

Host: pocllab-ws

Timers On : Wed May 29 20:58:50 2024
Timers Off: Wed May 29 20:58:52 2024

Wall Time:        1.15 seconds

                                                       Time (seconds)
Module                                       User      System        Wall        Calls

--------------------------------------------------------------------------------------

**************************************************************************************

Host: pocllab-ws

Timers On : Thu May 30 13:05:37 2024
Timers Off: Thu May 30 13:05:38 2024

Wall Time:        1.06 seconds

                                                       Time (seconds)
Module                                       User      System        Wall        Calls

--------------------------------------------------------------------------------------

**************************************************************************************

Host: pocllab-ws

Timers On : Thu May 30 13:11:10 2024
Timers Off: Thu May 30 13:11:11 2024

Wall Time:        0.91 seconds

                                                       Time (seconds)
Module                                       User      System        Wall        Calls

--------------------------------------------------------------------------------------

**************************************************************************************

Host: pocllab-ws

Timers On : Sat Jun  1 14:16:23 2024
Timers Off: Sat Jun  1 14:16:25 2024

Wall Time:        1.21 seconds

                                                       Time (seconds)
Module                                       User      System        Wall        Calls

--------------------------------------------------------------------------------------

**************************************************************************************

Host: pocllab-ws

Timers On : Mon Jun  3 14:34:03 2024
Timers Off: Mon Jun  3 14:34:04 2024

Wall Time:        1.04 seconds

                                                       Time (seconds)
Module                                       User      System        Wall        Calls

--------------------------------------------------------------------------------------

**************************************************************************************

Host: pocllab-ws

Timers On : Tue Jun  4 16:51:54 2024
Timers Off: Tue Jun  4 16:51:55 2024

Wall Time:        1.09 seconds

                                                       Time (seconds)
Module                                       User      System        Wall        Calls

--------------------------------------------------------------------------------------

**************************************************************************************

Host: pocllab-ws

Timers On : Wed Jun  5 15:04:39 2024
Timers Off: Wed Jun  5 15:04:40 2024

Wall Time:        1.34 seconds

                                                       Time (seconds)
Module                                       User      System        Wall        Calls

--------------------------------------------------------------------------------------

**************************************************************************************

Host: pocllab-ws

Timers On : Thu Jun  6 19:14:45 2024
Timers Off: Thu Jun  6 19:14:46 2024

Wall Time:        1.23 seconds

                                                       Time (seconds)
Module                                       User      System        Wall        Calls

--------------------------------------------------------------------------------------

**************************************************************************************

Host: pocllab-ws

Timers On : Thu Jun  6 19:44:01 2024
Timers Off: Thu Jun  6 19:44:02 2024

Wall Time:        1.26 seconds

                                                       Time (seconds)
Module                                       User      System        Wall        Calls

--------------------------------------------------------------------------------------

**************************************************************************************

Host: pocllab-ws

Timers On : Thu Jun  6 19:58:16 2024
Timers Off: Thu Jun  6 19:58:16 2024

Wall Time:        0.98 seconds

                                                       Time (seconds)
Module                                       User      System        Wall        Calls

--------------------------------------------------------------------------------------

**************************************************************************************

Host: pocllab-ws

Timers On : Thu Jun  6 20:29:20 2024
Timers Off: Thu Jun  6 20:29:21 2024

Wall Time:        0.92 seconds

                                                       Time (seconds)
Module                                       User      System        Wall        Calls

--------------------------------------------------------------------------------------

**************************************************************************************

Host: pocllab-ws

Timers On : Thu Jun  6 20:29:35 2024
Timers Off: Thu Jun  6 20:29:36 2024

Wall Time:        0.89 seconds

                                                       Time (seconds)
Module                                       User      System        Wall        Calls

--------------------------------------------------------------------------------------

**************************************************************************************

Host: pocllab-ws

Timers On : Fri Jun  7 13:09:51 2024
Timers Off: Fri Jun  7 13:09:52 2024

Wall Time:        1.29 seconds

                                                       Time (seconds)
Module                                       User      System        Wall        Calls

--------------------------------------------------------------------------------------

**************************************************************************************

Host: pocllab-ws

Timers On : Fri Jun  7 13:11:43 2024
Timers Off: Fri Jun  7 13:11:45 2024

Wall Time:        1.65 seconds

                                                       Time (seconds)
Module                                       User      System        Wall        Calls

--------------------------------------------------------------------------------------

**************************************************************************************

Host: pocllab-ws

Timers On : Sun Jun  9 19:13:09 2024
Timers Off: Sun Jun  9 19:13:10 2024

Wall Time:        1.32 seconds

                                                       Time (seconds)
Module                                       User      System        Wall        Calls

--------------------------------------------------------------------------------------

**************************************************************************************

Host: pocllab-ws

Timers On : Tue Jun 11 20:29:28 2024
Timers Off: Tue Jun 11 20:29:31 2024

Wall Time:        2.43 seconds

                                                       Time (seconds)
Module                                       User      System        Wall        Calls

--------------------------------------------------------------------------------------

**************************************************************************************

Host: pocllab-ws

Timers On : Wed Jun 12 14:30:31 2024
Timers Off: Wed Jun 12 14:30:33 2024

Wall Time:        1.49 seconds

                                                       Time (seconds)
Module                                       User      System        Wall        Calls

--------------------------------------------------------------------------------------

**************************************************************************************

Host: pocllab-ws

Timers On : Thu Jun 13 10:05:52 2024
Timers Off: Thu Jun 13 10:05:55 2024

Wall Time:        2.64 seconds

                                                       Time (seconds)
Module                                       User      System        Wall        Calls

--------------------------------------------------------------------------------------

**************************************************************************************

Host: pocllab-ws

Timers On : Fri Jun 14 16:08:19 2024
Timers Off: Fri Jun 14 16:08:21 2024

Wall Time:        1.28 seconds

                                                       Time (seconds)
Module                                       User      System        Wall        Calls

--------------------------------------------------------------------------------------

**************************************************************************************

Host: pocllab-ws

Timers On : Wed Jun 19 17:49:15 2024
Timers Off: Wed Jun 19 17:49:16 2024

Wall Time:        1.06 seconds

                                                       Time (seconds)
Module                                       User      System        Wall        Calls

--------------------------------------------------------------------------------------

**************************************************************************************

Host: pocllab-ws

Timers On : Fri Jun 21 14:44:42 2024
Timers Off: Fri Jun 21 14:44:44 2024

Wall Time:        1.36 seconds

                                                       Time (seconds)
Module                                       User      System        Wall        Calls

--------------------------------------------------------------------------------------

**************************************************************************************

Host: pocllab-ws

Timers On : Mon Jun 24 15:44:25 2024
Timers Off: Mon Jun 24 15:44:27 2024

Wall Time:        1.53 seconds

                                                       Time (seconds)
Module                                       User      System        Wall        Calls

--------------------------------------------------------------------------------------

**************************************************************************************

Host: pocllab-ws

Timers On : Mon Jun 24 15:49:27 2024
Timers Off: Mon Jun 24 15:49:28 2024

Wall Time:        1.24 seconds

                                                       Time (seconds)
Module                                       User      System        Wall        Calls

--------------------------------------------------------------------------------------

**************************************************************************************

Host: pocllab-ws

Timers On : Tue Jul  2 19:33:31 2024
Timers Off: Tue Jul  2 19:33:32 2024

Wall Time:        1.35 seconds

                                                       Time (seconds)
Module                                       User      System        Wall        Calls

--------------------------------------------------------------------------------------

**************************************************************************************

Host: pocllab-ws

Timers On : Tue Jul  2 19:34:31 2024
Timers Off: Tue Jul  2 19:34:32 2024

Wall Time:        0.92 seconds

                                                       Time (seconds)
Module                                       User      System        Wall        Calls

--------------------------------------------------------------------------------------

**************************************************************************************

Host: pocllab-ws

Timers On : Tue Jul  2 19:37:45 2024
Timers Off: Tue Jul  2 19:37:47 2024

Wall Time:        1.43 seconds

                                                       Time (seconds)
Module                                       User      System        Wall        Calls

--------------------------------------------------------------------------------------

**************************************************************************************

Host: pocllab-ws

Timers On : Tue Jul  2 19:39:32 2024
Timers Off: Tue Jul  2 19:39:33 2024

Wall Time:        1.20 seconds

                                                       Time (seconds)
Module                                       User      System        Wall        Calls

--------------------------------------------------------------------------------------

**************************************************************************************

Host: pocllab-ws

Timers On : Wed Jul  3 11:00:03 2024
Timers Off: Wed Jul  3 11:00:04 2024

Wall Time:        0.92 seconds

                                                       Time (seconds)
Module                                       User      System        Wall        Calls

--------------------------------------------------------------------------------------

**************************************************************************************

Host: pocllab-ws

Timers On : Wed Jul  3 11:11:22 2024
Timers Off: Wed Jul  3 11:11:23 2024

Wall Time:        0.92 seconds

                                                       Time (seconds)
Module                                       User      System        Wall        Calls

--------------------------------------------------------------------------------------

**************************************************************************************

Host: pocllab-ws

Timers On : Wed Jul  3 11:24:40 2024
Timers Off: Wed Jul  3 11:24:41 2024

Wall Time:        0.96 seconds

                                                       Time (seconds)
Module                                       User      System        Wall        Calls

--------------------------------------------------------------------------------------

**************************************************************************************

Host: pocllab-ws

Timers On : Wed Jul  3 11:46:29 2024
Timers Off: Wed Jul  3 11:46:31 2024

Wall Time:        1.21 seconds

                                                       Time (seconds)
Module                                       User      System        Wall        Calls

--------------------------------------------------------------------------------------

**************************************************************************************

Host: pocllab-ws

Timers On : Thu Jul  4 12:03:36 2024
Timers Off: Thu Jul  4 12:03:36 2024

Wall Time:        0.73 seconds

                                                       Time (seconds)
Module                                       User      System        Wall        Calls

--------------------------------------------------------------------------------------

**************************************************************************************

Host: pocllab-ws

Timers On : Thu Jul  4 15:33:53 2024
Timers Off: Thu Jul  4 15:33:54 2024

Wall Time:        1.38 seconds

                                                       Time (seconds)
Module                                       User      System        Wall        Calls

--------------------------------------------------------------------------------------

**************************************************************************************

Host: pocllab-ws

Timers On : Thu Jul  4 15:34:00 2024
Timers Off: Thu Jul  4 15:34:01 2024

Wall Time:        0.71 seconds

                                                       Time (seconds)
Module                                       User      System        Wall        Calls

--------------------------------------------------------------------------------------

**************************************************************************************

Host: pocllab-ws

Timers On : Fri Jul  5 11:37:00 2024
Timers Off: Fri Jul  5 11:37:02 2024

Wall Time:        1.07 seconds

                                                       Time (seconds)
Module                                       User      System        Wall        Calls

--------------------------------------------------------------------------------------

**************************************************************************************

Host: pocllab-ws

Timers On : Fri Jul  5 12:08:21 2024
Timers Off: Fri Jul  5 12:08:23 2024

Wall Time:        2.39 seconds

                                                       Time (seconds)
Module                                       User      System        Wall        Calls

--------------------------------------------------------------------------------------

**************************************************************************************

Host: pocllab-ws

Timers On : Fri Jul  5 12:10:54 2024
Timers Off: Fri Jul  5 12:10:55 2024

Wall Time:        1.15 seconds

                                                       Time (seconds)
Module                                       User      System        Wall        Calls

--------------------------------------------------------------------------------------

**************************************************************************************

Host: pocllab-ws

Timers On : Fri Jul  5 18:20:18 2024
Timers Off: Fri Jul  5 18:20:20 2024

Wall Time:        1.14 seconds

                                                       Time (seconds)
Module                                       User      System        Wall        Calls

--------------------------------------------------------------------------------------

**************************************************************************************

Host: pocllab-ws

Timers On : Mon Jul  8 09:44:10 2024
Timers Off: Mon Jul  8 09:44:11 2024

Wall Time:        1.46 seconds

                                                       Time (seconds)
Module                                       User      System        Wall        Calls

--------------------------------------------------------------------------------------

**************************************************************************************

Host: pocllab-ws

Timers On : Tue Jul  9 09:51:20 2024
Timers Off: Tue Jul  9 09:51:22 2024

Wall Time:        1.44 seconds

                                                       Time (seconds)
Module                                       User      System        Wall        Calls

--------------------------------------------------------------------------------------

**************************************************************************************

Host: pocllab-ws

Timers On : Tue Jul  9 11:22:48 2024
Timers Off: Tue Jul  9 11:22:49 2024

Wall Time:        1.12 seconds

                                                       Time (seconds)
Module                                       User      System        Wall        Calls

--------------------------------------------------------------------------------------

**************************************************************************************

Host: pocllab-ws

Timers On : Tue Jul  9 13:40:03 2024
Timers Off: Tue Jul  9 13:40:04 2024

Wall Time:        1.13 seconds

                                                       Time (seconds)
Module                                       User      System        Wall        Calls

--------------------------------------------------------------------------------------

**************************************************************************************

Host: pocllab-ws

Timers On : Tue Jul  9 17:25:58 2024
Timers Off: Tue Jul  9 17:25:58 2024

Wall Time:        0.73 seconds

                                                       Time (seconds)
Module                                       User      System        Wall        Calls

--------------------------------------------------------------------------------------

**************************************************************************************

Host: pocllab-ws

Timers On : Wed Jul 10 12:55:13 2024
Timers Off: Wed Jul 10 12:55:14 2024

Wall Time:        1.09 seconds

                                                       Time (seconds)
Module                                       User      System        Wall        Calls

--------------------------------------------------------------------------------------

**************************************************************************************

Host: pocllab-ws

Timers On : Mon Jul 15 19:22:10 2024
Timers Off: Mon Jul 15 19:22:11 2024

Wall Time:        1.03 seconds

                                                       Time (seconds)
Module                                       User      System        Wall        Calls

--------------------------------------------------------------------------------------

**************************************************************************************

Host: pocllab-ws

Timers On : Tue Jul 16 15:05:12 2024
Timers Off: Tue Jul 16 15:05:14 2024

Wall Time:        2.06 seconds

                                                       Time (seconds)
Module                                       User      System        Wall        Calls

--------------------------------------------------------------------------------------

**************************************************************************************

Host: pocllab-ws

Timers On : Wed Jul 31 10:36:18 2024
Timers Off: Wed Jul 31 10:36:20 2024

Wall Time:        1.94 seconds

                                                       Time (seconds)
Module                                       User      System        Wall        Calls

--------------------------------------------------------------------------------------

**************************************************************************************

Host: pocllab-ws

Timers On : Fri Aug  2 18:48:22 2024
Timers Off: Fri Aug  2 18:48:23 2024

Wall Time:        1.31 seconds

                                                       Time (seconds)
Module                                       User      System        Wall        Calls

--------------------------------------------------------------------------------------

**************************************************************************************

Host: pocllab-ws

Timers On : Sun Aug  4 11:33:25 2024
Timers Off: Sun Aug  4 11:33:28 2024

Wall Time:        2.12 seconds

                                                       Time (seconds)
Module                                       User      System        Wall        Calls

--------------------------------------------------------------------------------------

**************************************************************************************

Host: pocllab-ws

Timers On : Sun Aug  4 15:42:07 2024
Timers Off: Sun Aug  4 15:42:08 2024

Wall Time:        1.33 seconds

                                                       Time (seconds)
Module                                       User      System        Wall        Calls

--------------------------------------------------------------------------------------

**************************************************************************************

Host: pocllab-ws

Timers On : Sun Aug  4 16:27:35 2024
Timers Off: Sun Aug  4 16:27:36 2024

Wall Time:        1.00 seconds

                                                       Time (seconds)
Module                                       User      System        Wall        Calls

--------------------------------------------------------------------------------------

**************************************************************************************

Host: pocllab-ws

Timers On : Sun Aug  4 16:50:42 2024
Timers Off: Sun Aug  4 16:50:44 2024

Wall Time:        1.55 seconds

                                                       Time (seconds)
Module                                       User      System        Wall        Calls

--------------------------------------------------------------------------------------

**************************************************************************************

Host: pocllab-ws

Timers On : Tue Aug  6 12:37:41 2024
Timers Off: Tue Aug  6 12:37:42 2024

Wall Time:        0.97 seconds

                                                       Time (seconds)
Module                                       User      System        Wall        Calls

--------------------------------------------------------------------------------------

**************************************************************************************

Host: pocllab-ws

Timers On : Thu Aug  8 21:39:38 2024
Timers Off: Thu Aug  8 21:39:39 2024

Wall Time:        0.96 seconds

                                                       Time (seconds)
Module                                       User      System        Wall        Calls

--------------------------------------------------------------------------------------

**************************************************************************************

Host: pocllab-ws

Timers On : Thu Aug  8 21:41:12 2024
Timers Off: Thu Aug  8 21:41:14 2024

Wall Time:        1.31 seconds

                                                       Time (seconds)
Module                                       User      System        Wall        Calls

--------------------------------------------------------------------------------------

**************************************************************************************

Host: pocllab-ws

Timers On : Sat Aug 17 14:50:02 2024
Timers Off: Sat Aug 17 14:50:03 2024

Wall Time:        1.75 seconds

                                                       Time (seconds)
Module                                       User      System        Wall        Calls

--------------------------------------------------------------------------------------

**************************************************************************************

Host: pocllab-ws

Timers On : Thu Aug 22 17:08:38 2024
Timers Off: Thu Aug 22 17:08:39 2024

Wall Time:        1.21 seconds

                                                       Time (seconds)
Module                                       User      System        Wall        Calls

--------------------------------------------------------------------------------------

**************************************************************************************

Host: pocllab-ws

Timers On : Fri Sep  6 18:17:19 2024
Timers Off: Fri Sep  6 18:17:20 2024

Wall Time:        1.44 seconds

                                                       Time (seconds)
Module                                       User      System        Wall        Calls

--------------------------------------------------------------------------------------

**************************************************************************************

Host: pocllab-ws

Timers On : Fri Sep  6 18:17:31 2024
Timers Off: Fri Sep  6 18:17:33 2024

Wall Time:        1.42 seconds

                                                       Time (seconds)
Module                                       User      System        Wall        Calls

--------------------------------------------------------------------------------------

**************************************************************************************

Host: pocllab-ws

Timers On : Tue Oct  1 14:38:39 2024
Timers Off: Tue Oct  1 14:38:41 2024

Wall Time:        2.01 seconds

                                                       Time (seconds)
Module                                       User      System        Wall        Calls

--------------------------------------------------------------------------------------

**************************************************************************************

Host: pocllab-ws

Timers On : Tue Oct 15 14:18:57 2024
Timers Off: Tue Oct 15 14:19:00 2024

Wall Time:        2.12 seconds

                                                       Time (seconds)
Module                                       User      System        Wall        Calls

--------------------------------------------------------------------------------------

**************************************************************************************

Host: pocllab-ws

Timers On : Mon Nov 11 17:28:12 2024
Timers Off: Mon Nov 11 17:28:14 2024

Wall Time:        2.02 seconds

                                                       Time (seconds)
Module                                       User      System        Wall        Calls

--------------------------------------------------------------------------------------

**************************************************************************************

Host: pocllab-ws

Timers On : Mon Nov 11 17:28:32 2024
Timers Off: Mon Nov 11 17:28:33 2024

Wall Time:        1.12 seconds

                                                       Time (seconds)
Module                                       User      System        Wall        Calls

--------------------------------------------------------------------------------------

**************************************************************************************

Host: pocllab-ws

Timers On : Mon Nov 11 17:28:47 2024
Timers Off: Mon Nov 11 17:28:49 2024

Wall Time:        1.33 seconds

                                                       Time (seconds)
Module                                       User      System        Wall        Calls

--------------------------------------------------------------------------------------

**************************************************************************************

Host: pocllab-ws

Timers On : Mon Nov 11 17:29:59 2024
Timers Off: Mon Nov 11 17:30:00 2024

Wall Time:        0.95 seconds

                                                       Time (seconds)
Module                                       User      System        Wall        Calls

--------------------------------------------------------------------------------------

**************************************************************************************

Host: pocllab-ws

Timers On : Mon Nov 11 17:30:12 2024
Timers Off: Mon Nov 11 17:30:28 2024

Wall Time:       15.45 seconds

                                                       Time (seconds)
Module                                       User      System        Wall        Calls

--------------------------------------------------------------------------------------

**************************************************************************************


Host: pocllab-ws
Ho
: pocllab-ws

mers On : Mon Nov 11 17:31:58 2024
TiTimers On : Mon Nov 11 17:31:58 2024
Timers On : Mon Nov 11 17:31:58 2024
Timers Off: Mon Nov 11 17:32:32 2024
Timers Off: Mon Nov 11 17:32:32 2024

Wall Time:       33.69 seconds


Wall Time:       33.71 seconds

                   Time (seconds)

Wall Time:       33.70 seconds

                                                       Time (seconds)
                                                       Time (seconds)
Module                                       User      System        Wall        Calls
Module                                       User      System        Wall        Calls
Module                                       User      System        Wall        Calls

--------------------------------------------------------------------------------------

--------------------------------------------------------------------------------------

**************************************************************************************

**************************************************************************************

Host: pocllab-ws


mers On : Mon Nov 11 17:31:58 2024
Timers Off: Mon Nov 11 17:32:32 2024

Timers On : Mon Nov 11 17:31:58 2024

Wall Time:       33.43 seconds



Wall Time:       33.27 seconds

                                                       Time (seconds)
Module                                       User      System        Wall        Calls

--------------------------------------------------------------------------------------
--------------------------------------------------------------------------------------

**************************************************************************************

**************************************************************************************

Host: pocllab-ws

Timers On : Mon Nov 11 17:31:58 2024
Timers Off: Mon Nov 11 17:32:32 2024

Wall Time:       33.23 seconds

                                                       Time (seconds)
Module                                       User      System        Wall        Calls

--------------------------------------------------------------------------------------

**************************************************************************************
Host: pocllab-ws

Timers On : Mon Nov 11 17:31:58 2024
Timers Off: Mon Nov 11 17:32:32 2024

Wall Time:       33.25 seconds

                                                       Time (seconds)
Module                                       User      System        Wall        Calls

--------------------------------------------------------------------------------------
Timers On : Mon Nov 11 17:31:58 2024

**************************************************************************************
Timers Off: Mon Nov 11 17:32:32 2024

Wall Time:       33.38 seconds

                                                       Time (seconds)
Module                                       User      System        Wall        Calls

--------------------------------------------------------------------------------------

**************************************************************************************

Host: pocllab-ws

Timers On : Mon Nov 11 17:31:58 2024
Timers Off: Mon Nov 11 17:32:32 2024

Wall Time:       33.25 seconds

                                                       Time (seconds)
Host: pocllab-ws
                           User      System        Wall        Calls

--------------------------------------------------------------------------------------

**************************************************************************************
Timers On : Mon Nov 11 17:31:58 2024
Timers Off: Mon Nov 11 17:32:32 2024

Wall Time:       33.23 seconds

                                                       Time (seconds)
Module                                       User      System        Wall        Calls

--------------------------------------------------------------------------------------

**************************************************************************************

Host: pocllab-ws

Timers On : Mon Nov 11 17:31:49 2024
Timers Off: Mon Nov 11 17:32:32 2024

Wall Time:       43.32 seconds

                                                       Time (seconds)
Module                                       User      System        Wall        Calls

--------------------------------------------------------------------------------------

**************************************************************************************


Host: pocllab-ws
Host: pocllab-ws

Timers On : Mon 
mers On : Mon Nov 11 17:39:01 2024
Timers On : Mon Nov 11 17:39:01 2024
Timers On : Mon Nov 11 17:39:01 2024
Timers On : Mon Nov 11 17:39:01 2024
Timers Off: Mon Nov 11 17:39:25 2024
Timers Off: Mon Nov 11 17:39:25 2024

Wall Time:       23.70 seconds


Wall Time:       23.61 seconds

                   Time (seconds)
                                                       Time (seconds)

Wall Time:       23.91 seconds

                    Time (seconds)                                                       Time (seconds)
Module                                       User      System        Wall        Calls
Module                                       User      System        Wall        Calls
Module                                       User      System        Wall        Calls
Module                                       User      System        Wall        Calls
Module                                       User      System        Wall        Calls
Module                                       User      System        Wall        Calls

Host: pocllab-ws

Timers On : Mon Nov 11 17:39:06 2024
Timers Off: Mon Nov 11 17:39:25 2024

Wall Time:       18.94 seconds

                                                       Time (seconds)
Module                                       User      System        Wall        Calls

--------------------------------------------------------------------------------------

--------------------------------------------------------------------------------------

**************************************************************************************

Host: pocllab-ws

Timers On : Mon Nov 11 17:38:34 2024
Timers Off: Mon Nov 11 17:39:25 2024

Wall Time:       51.09 seconds

                                                       Time (seconds)
Module                                       User      System        Wall        Calls

--------------------------------------------------------------------------------------

**************************************************************************************

Host: pocllab-ws

Timers On : Mon Nov 11 17:39:33 2024
Timers Off: Mon Nov 11 17:39:33 2024

Wall Time:        0.75 seconds

                                                       Time (seconds)
Module                                       User      System        Wall        Calls

--------------------------------------------------------------------------------------

**************************************************************************************

Host: pocllab-ws

Timers On : Mon Nov 11 17:40:31 2024
Timers Off: Mon Nov 11 17:40:33 2024

Wall Time:        1.49 seconds

                                                       Time (seconds)
Module                                       User      System        Wall        Calls

--------------------------------------------------------------------------------------

**************************************************************************************

Host: pocllab-ws

Timers On : Mon Nov 11 17:46:50 2024
Timers Off: Mon Nov 11 17:46:52 2024

Wall Time:        2.07 seconds

                                                       Time (seconds)
Module                                       User      System        Wall        Calls

--------------------------------------------------------------------------------------

**************************************************************************************

Host: pocllab-ws

Timers On : Mon Nov 11 18:00:16 2024
Timers Off: Mon Nov 11 18:00:19 2024

Wall Time:        2.12 seconds

                                                       Time (seconds)
Module                                       User      System        Wall        Calls

--------------------------------------------------------------------------------------

**************************************************************************************

Host: pocllab-ws

Timers On : Mon Nov 11 18:02:25 2024
Timers Off: Mon Nov 11 18:02:26 2024

Wall Time:        1.50 seconds

                                                       Time (seconds)
Module                                       User      System        Wall        Calls

--------------------------------------------------------------------------------------

**************************************************************************************

Host: pocllab-ws

Timers On : Mon Nov 11 18:07:29 2024
Timers Off: Mon Nov 11 18:08:28 2024

Wall Time:       58.38 seconds

                                                       Time (seconds)
Module                                       User      System        Wall        Calls

--------------------------------------------------------------------------------------

**************************************************************************************

Host: pocllab-ws

Timers On : Mon Nov 11 18:08:24 2024
Timers Off: Mon Nov 11 18:08:28 2024

Wall Time:        4.28 seconds

                                                       Time (seconds)
Module                                       User      System        Wall        Calls

--------------------------------------------------------------------------------------

**************************************************************************************

Host: pocllab-ws

Timers On : Mon Nov 11 18:08:24 2024
Timers Off: Mon Nov 11 18:08:28 2024

Wall Time:        4.00 seconds

                                                       Time (seconds)
Module                                       User      System        Wall        Calls

--------------------------------------------------------------------------------------

**************************************************************************************

Host: pocllab-ws

Timers On : Mon Nov 11 18:08:24 2024

Timers Off: Mon Nov 11 18:08:28 2024

Wall Time:        4.
mers On : Mon Nov 11 18:08:24 2024

mers Off: Mon Nov 11 18:08:28 2024
                                      
Wall Time:        3.98 secondsHost: pocllab-ws
                    Module                                       User      System        Wall        Calls

--------------------------------------------------------------------------------------Timers On : Mon Nov 11 18:08:24 2024
                 Time (seconds)
Module                                       User      System        Wall        Calls


Wall Time:        4.24 seconds

                                                       Time (seconds)

**************************************************************************************

--------------------------------------------------------------------------------------

**************************************************************************************

Host: pocllab-ws

Timers On : Mon Nov 11 18:08:24 2024
Timers Off: Mon Nov 11 18:08:28 2024

Wall Time:        4.19 seconds

                                                       Time (seconds)
Module                                       User      System        Wall        Calls

--------------------------------------------------------------------------------------

**************************************************************************************


st: pocllab-ws

Host: pocllab-ws

Timers On : Mon Nov 11 18:08:24 2024

mers Off: Mon Nov 11 18:08:28 2024
Host: pocllab-ws
  3.84 seconds


Wall Time:        3.86 seconds

                   Time (seconds)
                                                       Time (seconds)
Module                                       User      System        Wall        Calls

--------------------------------------------------------------------------------------

------------------------------------
------------------------------------------------

Wall Time:        3.66 seconds


**************************************************************************************

dule                                       User      System        Wall        Calls
Timers On : Mon Nov 11 18:08:24 2024
--------------------------------------------------

**************************************************************************************

Wall Time:        3.77 seconds

                                                       Time (seconds)

dule                                       User      System        Wall        Calls

--------------------------------------------------------------------------------------
Host: pocllab-ws

**************************************************************************************
Timers On : Mon Nov 11 18:08:24 2024
Timers Off: Mon Nov 11 18:08:28 2024

Wall Time:        3.69 seconds

                                                       Time (seconds)
Module                                       User      System        Wall        Calls

--------------------------------------------------------------------------------------

**************************************************************************************

Host: pocllab-ws


Timers On : Mon Nov 11 18:08:24 2024
Timers On : Mon Nov 11 18:08:24 2024
Timers Off: Mon Nov 11 18:08:28 2024
Host: pocllab-ws

Wall Time:        3.76 seconds


Wall Time:        3.69 seconds

                   Time (seconds)
Timers On : Mon Nov 11 18:08:24 2024
Module                                       User      System        Wall        Calls
Timers Off: Mon Nov 11 18:08:28 2024
                 Time (seconds)
Module                                       User      System        Wall        Calls


**************************************************************************************
 Time (seconds)
-----------------
Module                                       User      System        Wall        Calls


--------------------------------------------------------------------------------------
Host: pocllab-ws
**********************************************************************

st: pocllab-ws

mers On : Mon Nov 11 18:08:24 2024

mers Off: Mon Nov 11 18:08:28 2024
Timers On : Mon Nov 11 18:08:24 2024
Host: pocllab-ws
  3.69 seconds


                                                                                           Time (seconds)
Timers Off: Mon Nov 11 18:08:28 2024
       User      System        Wall        Calls

--------------------------------------------------------------------------------------

**************************************************************************************

--------------------------------------------------------------------------------------

Wall Time:        3.63 seconds

****************************************************
                                                       Time (seconds)
Module                                       User      System        Wall        Calls

--------------------------------------------------------------------------------------

**************************************************************************************

Host: pocllab-ws

Timers On : Mon Nov 11 18:08:24 2024
Timers Off: Mon Nov 11 18:08:28 2024

Wall Time:        3.68 seconds

                                                       Time (seconds)
Module                                       User      System        Wall        Calls

--------------------------------------------------------------------------------------

**************************************************************************************

Host: pocllab-ws

Timers On : Mon Nov 11 18:09:14 2024
Timers Off: Mon Nov 11 18:09:28 2024

Wall Time:       13.64 seconds

                                                       Time (seconds)
Module                                       User      System        Wall        Calls

--------------------------------------------------------------------------------------

**************************************************************************************

Host: pocllab-ws

Timers On : Mon Nov 11 18:09:33 2024
Timers Off: Mon Nov 11 18:10:28 2024

Wall Time:       55.48 seconds

                                                       Time (seconds)
Module                                       User      System        Wall        Calls

--------------------------------------------------------------------------------------

**************************************************************************************

Host: pocllab-ws

Timers On : Mon Nov 11 18:10:12 2024
Timers Off: Mon Nov 11 18:10:29 2024

Wall Time:       16.54 seconds

                                                       Time (seconds)
Module                                       User      System        Wall        Calls

--------------------------------------------------------------------------------------

**************************************************************************************

Host: pocllab-ws

Timers On : Mon Nov 11 18:10:12 2024
Timers Off: Mon Nov 11 18:10:29 2024

Wall Time:       16.52 seconds

                                                       Time (seconds)
Module                                       User      System        Wall        Calls

--------------------------------------------------------------------------------------

**************************************************************************************

Host: pocllab-ws

Timers On : Mon Nov 11 18:10:11 2024
Timers Off: Mon Nov 11 18:10:29 2024

Wall Time:       17.19 seconds

                                                       Time (seconds)
Module                                       User      System        Wall        Calls

--------------------------------------------------------------------------------------

**************************************************************************************

Host: pocllab-ws

Timers On : Mon Nov 11 18:20:54 2024
Timers Off: Mon Nov 11 18:37:01 2024
Host: pocllab-ws

Timers On : Mon Nov 11 18:20:54 2024
Timers Off: Mon Nov 11 18:37:01 2024

Wall Time:      966.68 seconds

                                                       Time (seconds)

Host: pocllab-ws

Module                                       User      System        Wall        Calls
Timers Off: Mon Nov 11 18:37:01 2024

Wall Time:      966.88 seconds


--------------------------------------------------------------------------------------

**************************************************************************************

Host: pocllab-ws

Timers On : Mon Nov 11 18:20:55 2024
Timers Off: Mon Nov 11 18:37:01 2024

Wall Time:      965.94 seconds

                                                       Time (seconds)
Module                                       User      System        Wall        Calls

--------------------------------------------------------------------------------------

**************************************************************************************
Host: pocllab-ws

Timers On : Mon Nov 11 18:20:55 2024
Timers Off: Mon Nov 11 18:37:01 2024

Wall Time:      965.93 seconds

                                                       Time (seconds)
Module                                       User      System        Wall        Calls

--------------------------------------------------------------------------------------

**************************************************************************************

Host: pocllab-ws

Timers On : Mon Nov 11 18:20:55 2024
Timers Off: Mon Nov 11 18:37:01 2024

Wall Time:      965.94 seconds

                                                       Time (seconds)

Host: pocllab-ws
                         User      System        Wall        Calls


--------------------------------------------------------------------------------------

**************************************************************************************
Timers On : Mon Nov 11 18:20:55 2024
Timers Off: Mon Nov 11 18:37:01 2024

Wall Time:      965.90 seconds

                                                       Time (seconds)
Module                                       User      System        Wall        Calls

--------------------------------------------------------------------------------------

**************************************************************************************

Host: pocllab-ws

Timers On : Mon Nov 11 18:20:55 2024
Timers Off: Mon Nov 11 18:37:01 2024

Wall Time:      965.94 seconds

                                                       Time (seconds)
Module                                       User      System        Wall        Calls

--------------------------------------------------------------------------------------

**************************************************************************************

Host: pocllab-ws

Timers On : Mon Nov 11 18:11:44 2024
Timers Off: Mon Nov 11 18:37:01 2024

Wall Time:     1516.89 seconds

                                                       Time (seconds)
Module                                       User      System        Wall        Calls

--------------------------------------------------------------------------------------

**************************************************************************************

Host: pocllab-ws

Timers On : Mon Nov 11 18:37:17 2024
Timers Off: Mon Nov 11 18:39:38 2024

Wall Time:      141.14 seconds

                                                       Time (seconds)
Module                                       User      System        Wall        Calls

--------------------------------------------------------------------------------------

**************************************************************************************

Host: pocllab-ws

Timers On : Mon Nov 11 18:38:10 2024
Timers Off: Mon Nov 11 18:39:38 2024

Wall Time:       87.58 seconds

                                                       Time (seconds)
Module                                       User      System        Wall        Calls

--------------------------------------------------------------------------------------

**************************************************************************************

Host: pocllab-ws

Timers On : Mon Nov 11 18:38:11 2024
Timers Off: Mon Nov 11 18:39:38 2024

Wall Time:       87.36 seconds

                                                       Time (seconds)
Module                                       User      System        Wall        Calls

--------------------------------------------------------------------------------------

**************************************************************************************

Host: pocllab-ws

Timers On : Mon Nov 11 18:38:11 2024
Timers Off: Mon Nov 11 18:39:38 2024

Wall Time:       87.45 seconds

                                                       Time (seconds)
Module                                       User      System        Wall        Calls

--------------------------------------------------------------------------------------

**************************************************************************************

Host: pocllab-ws

Timers On : Mon Nov 11 18:38:11 2024
Timers Off: Mon Nov 11 18:39:38 2024

Wall Time:       87.41 seconds

                                                       Time (seconds)
Module                                       User      System        Wall        Calls

--------------------------------------------------------------------------------------

**************************************************************************************

Host: pocllab-ws

Timers On : Mon Nov 11 18:58:55 2024
Timers Off: Mon Nov 11 19:01:34 2024

Wall Time:      159.06 seconds

                                                       Time (seconds)
Module                                       User      System        Wall        Calls

--------------------------------------------------------------------------------------

**************************************************************************************

Host: pocllab-ws

Timers On : Mon Nov 11 18:59:50 2024
Timers Off: Mon Nov 11 19:01:34 2024

Wall Time:      103.39 seconds

                                                       Time (seconds)
Module                                       User      System        Wall        Calls

--------------------------------------------------------------------------------------

**************************************************************************************

Host: pocllab-ws

Timers On : Mon Nov 11 19:17:08 2024
Timers Off: Mon Nov 11 19:17:59 2024

Wall Time:       51.49 seconds

                                                       Time (seconds)
Module                                       User      System        Wall        Calls

--------------------------------------------------------------------------------------

**************************************************************************************

Host: pocllab-ws

Timers On : Mon Nov 11 19:17:55 2024
Timers Off: Mon Nov 11 19:17:59 2024

Wall Time:        4.14 seconds


                                                     Time (seconds)

dule                                       User      System        Wall        Calls
Host: pocllab-ws

--------------------------------------------------------------------------------------
Timers On : Mon Nov 11 19:17:55 2024
Timers Off: Mon Nov 11 19:17:59 2024
**************************************************

Wall Time:        4.11 seconds

                                                       Time (seconds)
Module                                       User      System        Wall        Calls

--------------------------------------------------------------------------------------

**************************************************************************************

Host: pocllab-ws

Timers On : Mon Nov 11 19:17:55 2024

mers Off: Mon Nov 11 19:17:59 2024

Wall Time:        4.08 seconds

Host: pocllab-ws
                                                       Time (seconds)

Module                                       User      System        Wall        Calls
Timers On : Mon Nov 11 19:17:55 2024
Timers Off: Mon Nov 11 19:17:59 2024
--------------------------------------------------

**************************************************************************************

Wall Time:        4.10 seconds

                                                       Time (seconds)
Module                                       User      System        Wall        Calls

--------------------------------------------------------------------------------------

**************************************************************************************

Host: pocllab-ws

Timers On : Mon Nov 11 19:20:37 2024
Timers Off: Mon Nov 11 19:21:33 2024

Wall Time:       56.44 seconds

                                                       Time (seconds)
Module                                       User      System        Wall        Calls

--------------------------------------------------------------------------------------

**************************************************************************************

Host: pocllab-ws

Timers On : Mon Nov 11 19:21:28 2024
Timers Off: Mon Nov 11 19:21:33 2024

Wall Time:        4.77 seconds

                                                       Time (seconds)
Module                                       User      System        Wall        Calls

--------------------------------------------------------------------------------------

**************************************************************************************

Host: pocllab-ws

Timers On : Mon Nov 11 19:21:29 2024
Timers Off: Mon Nov 11 19:21:33 2024

Wall Time:        4.50 seconds

                                                       Time (seconds)
Module                                       User      System        Wall        Calls

--------------------------------------------------------------------------------------

**************************************************************************************


Host: pocllab-ws

Timers On : Mon Nov 11 19:22:54 2024
Timers Off: Mon Nov 11 19:25:14 2024

Wall Time:      140.40 seconds

                                                       Time (seconds)
Module                                       User      System        Wall        Calls

--------------------------------------------------------------------------------------

**************************************************************************************

Host: pocllab-ws

Timers On : Mon Nov 11 19:23:33 2024
Timers Off: Mon Nov 11 19:25:14 2024

Wall Time:      101.47 seconds

                                                       Time (seconds)
Module                                       User      System        Wall        Calls

--------------------------------------------------------------------------------------

**************************************************************************************

Host: pocllab-ws

Timers On : Mon Nov 11 19:23:33 2024
Timers Off: Mon Nov 11 19:25:14 2024

Wall Time:      100.97 seconds

                                                       Time (seconds)
Module                                       User      System        Wall        Calls

--------------------------------------------------------------------------------------

**************************************************************************************

Host: pocllab-ws

Timers On : Mon Nov 11 19:23:33 2024
Timers Off: Mon Nov 11 19:25:14 2024

Wall Time:      100.92 seconds

                                                       Time (seconds)
Module                                       User      System        Wall        Calls

--------------------------------------------------------------------------------------

**************************************************************************************


Host: pocllab-ws

Timers On : Mon Nov 11 19:23:33 2024
Timers Off: Mon Nov 11 19:25:14 2024

Wall Time:      101.46 seconds

                                                       Time (seconds)
Module                                       User      System        Wall        Calls

--------------------------------------------------------------------------------------

**************************************************************************************

Host: pocllab-ws

Timers On : Mon Nov 11 19:23:33 2024
Timers Off: Mon Nov 11 19:25:14 2024

Wall Time:      101.04 seconds

                                                       Time (seconds)
Module                                       User      System        Wall        Calls

--------------------------------------------------------------------------------------

**************************************************************************************

Host: pocllab-ws

Timers On : Mon Nov 11 19:32:23 2024
Timers Off: Mon Nov 11 19:34:57 2024

Wall Time:      153.91 seconds

                                                       Time (seconds)
Module                                       User      System        Wall        Calls

--------------------------------------------------------------------------------------

**************************************************************************************

Host: pocllab-ws

Timers On : Mon Nov 11 19:55:38 2024
Timers Off: Mon Nov 11 20:04:46 2024

Wall Time:      547.48 seconds

                                                       Time (seconds)
Module                                       User      System        Wall        Calls

--------------------------------------------------------------------------------------

**************************************************************************************

Host: pocllab-ws

Timers On : Mon Nov 11 19:46:34 2024
Timers Off: Mon Nov 11 20:04:46 2024

Wall Time:     1092.29 seconds

                                                       Time (seconds)
Module                                       User      System        Wall        Calls

--------------------------------------------------------------------------------------

**************************************************************************************

Host: pocllab-ws

Timers On : Mon Nov 11 22:12:40 2024
Timers Off: Mon Nov 11 22:12:44 2024

Wall Time:        4.41 seconds

                                                       Time (seconds)
Module                                       User      System        Wall        Calls

--------------------------------------------------------------------------------------

**************************************************************************************

Host: pocllab-ws

Timers On : Mon Nov 11 22:13:02 2024
Timers Off: Mon Nov 11 22:13:05 2024

Wall Time:        3.22 seconds

                                                       Time (seconds)
Module                                       User      System        Wall        Calls

--------------------------------------------------------------------------------------

**************************************************************************************


Host: pocllab-ws

Timers On : Mon Nov 11 22:13:10 2024
Timers Off: Mon Nov 11 22:31:16 2024

Wall Time:     1086.00 seconds

                                                       Time (seconds)
Module                                       User      System        Wall        Calls

--------------------------------------------------------------------------------------

**************************************************************************************

Host: pocllab-ws

Timers On : Mon Nov 11 22:15:04 2024
Timers Off: Tue Nov 12 04:15:05 2024

Wall Time:    21601.54 seconds

                                                       Time (seconds)
Module                                       User      System        Wall        Calls

--------------------------------------------------------------------------------------

**************************************************************************************

Host: pocllab-ws

Timers On : Tue Nov 12 09:54:30 2024
Timers Off: Tue Nov 12 09:55:45 2024

Wall Time:       75.09 seconds

                                                       Time (seconds)
Module                                       User      System        Wall        Calls

--------------------------------------------------------------------------------------

**************************************************************************************

Host: pocllab-ws

Timers On : Tue Nov 12 09:55:50 2024
Timers Off: Tue Nov 12 09:55:51 2024

Wall Time:        1.55 seconds

                                                       Time (seconds)
Module                                       User      System        Wall        Calls

--------------------------------------------------------------------------------------

**************************************************************************************

Host: pocllab-ws

Timers On : Tue Nov 12 10:00:57 2024
Timers Off: Tue Nov 12 10:02:57 2024

Wall Time:      120.31 seconds

                                                       Time (seconds)
Module                                       User      System        Wall        Calls

--------------------------------------------------------------------------------------

**************************************************************************************

Host: pocllab-ws

Timers On : Tue Nov 12 10:01:58 2024
Timers Off: Tue Nov 12 10:02:58 2024

Wall Time:       59.38 seconds

                                                       Time (seconds)
Module                                       User      System        Wall        Calls

--------------------------------------------------------------------------------------

**************************************************************************************

Host: pocllab-ws

Timers On : Tue Nov 12 10:01:58 2024
Timers Off: Tue Nov 12 10:02:58 2024

Wall Time:       59.45 seconds

                                                       Time (seconds)
Module                                       User      System        Wall        Calls

--------------------------------------------------------------------------------------

**************************************************************************************


Host: pocllab-ws

Timers On : Tue Nov 12 10:01:58 2024
Timers Off: Tue Nov 12 10:02:58 2024

Wall Time:       59.38 seconds

                                                       Time (seconds)

Host: pocllab-ws

Timers On : Wed Nov 13 13:47:30 2024
Timers Off: Wed Nov 13 13:47:34 2024

Wall Time:        3.33 seconds

                                                       Time (seconds)
Module                                       User      System        Wall        Calls

--------------------------------------------------------------------------------------

**************************************************************************************

Host: pocllab-ws

Timers On : Wed Nov 13 13:48:11 2024
Timers Off: Wed Nov 13 13:50:11 2024

Wall Time:      120.01 seconds

                                                       Time (seconds)
Module                                       User      System        Wall        Calls

--------------------------------------------------------------------------------------

**************************************************************************************

Host: pocllab-ws

Timers On : Wed Nov 13 13:49:10 2024
Timers Off: Wed Nov 13 13:50:11 2024

Wall Time:       60.88 seconds

                                                       Time (seconds)
Module                                       User      System        Wall        Calls

--------------------------------------------------------------------------------------

**************************************************************************************

Host: pocllab-ws

Timers On : Wed No
13 13:49:10 2024
Timers Off: Wed Nov 13 13:50:11 2024
Timers On : Wed Nov 13 13:49:10 2024
                                                       Time (seconds)
Timers Off: Wed Nov 13 13:50:11 2024
Module                                       User      System        Wall        Calls

--------------------------------------------------------------------------------------
                                                       Time (seconds)

**************************************************************************************
Module                                       User      System        Wall        Calls

--------------------------------------------------------------------------------------


**************************************************************************************
Host: pocllab-ws

Timers On : Wed Nov 13 13:49:10 2024
Timers Off: Wed Nov 13 13:50:11 2024

Wall Time:       60.64 seconds

                                                       Time (seconds)
Module                                       User      System        Wall        Calls

--------------------------------------------------------------------------------------

**************************************************************************************

Host: pocllab-ws

Timers On : Wed Nov 13 13:49:10 2024
Timers Off: Wed Nov 13 13:50:11 2024

Wall Time:       60.37 seconds

                                                       Time (seconds)
Module                                       User      System        Wall        Calls

--------------------------------------------------------------------------------------

**************************************************************************************

Host: pocllab-ws

Timers On : Wed Nov 13 13:49:10 2024
Timers Off: Wed Nov 13 13:50:11 2024

Wall Time:       60.50 seconds


Host: pocllab-ws

Timers On : Wed Nov 13 13:49:10 2024
Timers Off: Wed Nov 13 13:50:11 2024

Wall Time:       60.36 seconds

                                                       Time (seconds)
Module                                       User      System        Wall        Calls

--------------------------------------------------------------------------------------

**************************************************************************************

Host: pocllab-ws

Timers On : Wed Nov 13 13:58:14 2024
Timers Off: Wed Nov 13 13:59:40 2024

Wall Time:       85.35 seconds

                                                       Time (seconds)
Module                                       User      System        Wall        Calls

--------------------------------------------------------------------------------------

**************************************************************************************

Host: pocllab-ws

Timers On : Wed Nov 13 13:58:39 2024
Timers Off: Wed Nov 13 13:59:40 2024

Wall Time:       60.89 seconds

                                                       Time (seconds)
Module                                       User      System        Wall        Calls

--------------------------------------------------------------------------------------

**************************************************************************************

Host: pocllab-ws

Timers On : Wed Nov 13 13:58:38 2024
Timers Off: Wed Nov 13 13:59:40 2024

Wall Time:       61.10 seconds

                                                       Time (seconds)
Module                                       User      System        Wall        Calls

--------------------------------------------------------------------------------------

**************************************************************************************

Host: pocllab-ws

Timers On : Wed Nov 13 13:58:38 2024
Timers Off: Wed Nov 13 13:59:40 2024

Wall Time:       61.13 seconds

                                                       Time (seconds)
Module                                       User      System        Wall        Calls

--------------------------------------------------------------------------------------

**************************************************************************************

Host: pocllab-ws

Timers On : Wed Nov 13 13:58:38 2024
Timers Off: Wed Nov 13 13:59:40 2024

Wall Time:       61.14 seconds

                                                       Time (seconds)
Module                                       User      System        Wall        Calls

--------------------------------------------------------------------------------------

**************************************************************************************

Host: pocllab-ws

Timers On : Wed Nov 13 13:58:39 2024

Host: pocllab-ws

Timers On : Wed Nov 13 14:14:28 2024
Timers Off: Wed Nov 13 14:15:52 2024

Wall Time:       84.35 seconds

                                                       Time (seconds)
Module                                       User      System        Wall        Calls

--------------------------------------------------------------------------------------

**************************************************************************************

Host: pocllab-ws

Timers On : Wed Nov 13 14:14:51 2024
Timers Off: Wed Nov 13 14:15:52 2024

Wall Time:       60.80 seconds

                                                       Time (seconds)
Module                                       User      System        Wall        Calls

--------------------------------------------------------------------------------------

**************************************************************************************

Host: pocllab-ws

Timers On : Wed Nov 13 14:14:51 2024
Timers Off: Wed Nov 13 14:15:52 2024

Wall Time:       60.77 seconds

                                                       Time (seconds)
Module                                       User      System        Wall        Calls

--------------------------------------------------------------------------------------

**************************************************************************************

Host: pocllab-ws

Timers On : Wed Nov 13 14:14:52 2024
Timers Off: Wed Nov 13 14:15:52 2024

Wall Time:       60.59 seconds

                                                       Time (seconds)
Module                                       User      System        Wall        Calls

--------------------------------------------------------------------------------------

**************************************************************************************

Host: pocllab-ws

Timers On : Wed Nov 13 14:14:52 2024
Timers Off: Wed Nov 13 14:15:52 2024

Wall Time:       60.64 seconds

                                                       Time (seconds)
Module                                       User      System        Wall        Calls

--------------------------------------------------------------------------------------

**************************************************************************************

Host: pocllab-ws


Host: pocllab-ws

Timers On : Wed Nov 13 14:14:52 2024
Timers Off: Wed Nov 13 14:15:52 2024

Wall Time:       60.40 seconds

                                                       Time (seconds)
Module                                       User      System        Wall        Calls

--------------------------------------------------------------------------------------

**************************************************************************************
Host: pocllab-ws

Timers On : Wed Nov 13 14:14:52 2024
Timers Off: Wed Nov 13 14:15:52 2024

Wall Time:       60.57 seconds

                                                       Time (seconds)
Module                                       User      System        Wall        Calls


--------------------------------------------------------------------------------------

**************************************************************************************

Timers On : Wed Nov 13 14:14:52 2024
Timers Off: Wed Nov 13 14:15:52 2024

Wall Time:       60.54 seconds

                                                       Time (seconds)
Module                                       User      System        Wall        Calls

--------------------------------------------------------------------------------------

**************************************************************************************

Host: pocllab-ws

Timers On : Wed Nov 13 14:14:52 2024
Timers Off: Wed Nov 13 14:15:52 2024

Host: pocllab-ws

Timers On : Wed Nov 13 14:48:44 2024
Timers Off: Wed Nov 13 14:50:08 2024

Wall Time:       84.18 seconds

                                                       Time (seconds)
Module                                       User      System        Wall        Calls

--------------------------------------------------------------------------------------

**************************************************************************************

Host: pocllab-ws

Timers On : Wed Nov 13 14:49:08 2024
Timers Off: Wed Nov 13 14:50:08 2024

Wall Time:       60.12 seconds

                                                       Time (seconds)
Module                                       User      System        Wall        Calls

--------------------------------------------------------------------------------------

**************************************************************************************

Host: pocllab-ws

Timers On : Wed Nov 13 14:49:08 2024
Timers Off: Wed Nov 13 14:50:08 2024

Wall Time:       60.08 seconds

                                                       Time (seconds)
Module                                       User      System        Wall        Calls

--------------------------------------------------------------------------------------

**************************************************************************************

Host: pocllab-ws

Timers On : Wed Nov 13 14:49:08 2024
Timers Off: Wed Nov 13 14:50:08 2024

Wall Time:       60.01 seconds

                                                       Time (seconds)
Module                                       User      System        Wall        Calls

--------------------------------------------------------------------------------------

**************************************************************************************

Host: pocllab-ws

Timers On : Wed Nov 13 14:49:08 2024
Timers Off: Wed Nov 13 14:50:08 2024

Wall Time:       59.97 seconds

                                                       Time (seconds)
Module                                       User      System        Wall        Calls

--------------------------------------------------------------------------------------

**************************************************************************************
