
Host: pocllab-ws

Timers On : Wed Apr  3 15:58:50 2024
Timers Off: Wed Apr  3 15:58:51 2024

Wall Time:        0.99 seconds

                                                       Time (seconds)
Module                                       User      System        Wall        Calls

--------------------------------------------------------------------------------------

**************************************************************************************

Host: pocllab-ws

Timers On : Wed Apr  3 15:59:31 2024
Timers Off: Wed Apr  3 15:59:32 2024

Wall Time:        1.07 seconds

                                                       Time (seconds)
Module                                       User      System        Wall        Calls

--------------------------------------------------------------------------------------

**************************************************************************************

Host: pocllab-ws

Timers On : Wed Apr  3 16:00:46 2024
Timers Off: Wed Apr  3 16:00:46 2024

Wall Time:        0.84 seconds

                                                       Time (seconds)
Module                                       User      System        Wall        Calls

--------------------------------------------------------------------------------------

**************************************************************************************

Host: pocllab-ws

Timers On : Wed Apr  3 16:00:54 2024
Timers Off: Wed Apr  3 16:00:55 2024

Wall Time:        0.80 seconds

                                                       Time (seconds)
Module                                       User      System        Wall        Calls

--------------------------------------------------------------------------------------

**************************************************************************************

Host: pocllab-ws

Timers On : Wed Apr  3 16:02:29 2024
Timers Off: Wed Apr  3 16:02:30 2024

Wall Time:        1.00 seconds

                                                       Time (seconds)
Module                                       User      System        Wall        Calls

--------------------------------------------------------------------------------------

**************************************************************************************

Host: pocllab-ws

Timers On : Wed Apr  3 16:02:43 2024
Timers Off: Wed Apr  3 16:02:44 2024

Wall Time:        1.45 seconds

                                                       Time (seconds)
Module                                       User      System        Wall        Calls

--------------------------------------------------------------------------------------

**************************************************************************************

Host: pocllab-ws

Timers On : Sat May  4 19:41:14 2024
Timers Off: Sat May  4 19:41:19 2024

Wall Time:        4.71 seconds

                                                       Time (seconds)
Module                                       User      System        Wall        Calls

--------------------------------------------------------------------------------------

**************************************************************************************

Host: pocllab-ws

Timers On : Sat May  4 19:42:44 2024
Timers Off: Sat May  4 19:42:48 2024

Wall Time:        3.84 seconds

                                                       Time (seconds)
Module                                       User      System        Wall        Calls

--------------------------------------------------------------------------------------

**************************************************************************************

Host: pocllab-ws

Timers On : Sat May  4 19:43:38 2024
Timers Off: Sat May  4 19:43:41 2024

Wall Time:        3.57 seconds

                                                       Time (seconds)
Module                                       User      System        Wall        Calls

--------------------------------------------------------------------------------------

**************************************************************************************

Host: pocllab-ws

Timers On : Sat May  4 19:43:52 2024
Timers Off: Sat May  4 19:43:56 2024

Wall Time:        3.98 seconds

                                                       Time (seconds)
Module                                       User      System        Wall        Calls

--------------------------------------------------------------------------------------

**************************************************************************************

Host: pocllab-ws

Timers On : Sat May  4 19:44:30 2024
Timers Off: Sat May  4 19:44:34 2024

Wall Time:        4.01 seconds

                                                       Time (seconds)
Module                                       User      System        Wall        Calls

--------------------------------------------------------------------------------------

**************************************************************************************

Host: pocllab-ws

Timers On : Sat May  4 19:44:48 2024
Timers Off: Sat May  4 19:44:52 2024

Wall Time:        3.77 seconds

                                                       Time (seconds)
Module                                       User      System        Wall        Calls

--------------------------------------------------------------------------------------

**************************************************************************************

Host: pocllab-ws

Timers On : Sat May  4 19:45:03 2024
Timers Off: Sat May  4 19:45:06 2024

Wall Time:        3.60 seconds

                                                       Time (seconds)
Module                                       User      System        Wall        Calls

--------------------------------------------------------------------------------------

**************************************************************************************

Host: pocllab-ws

Timers On : Mon May  6 20:09:33 2024
Timers Off: Mon May  6 20:09:34 2024

Wall Time:        1.21 seconds

                                                       Time (seconds)
Module                                       User      System        Wall        Calls

--------------------------------------------------------------------------------------

**************************************************************************************

Host: pocllab-ws

Timers On : Fri May 10 12:09:09 2024
Timers Off: Fri May 10 12:09:10 2024

Wall Time:        0.93 seconds

                                                       Time (seconds)
Module                                       User      System        Wall        Calls

--------------------------------------------------------------------------------------

**************************************************************************************

Host: pocllab-ws

Timers On : Fri May 10 14:12:27 2024
Timers Off: Fri May 10 14:12:29 2024

Wall Time:        1.26 seconds

                                                       Time (seconds)
Module                                       User      System        Wall        Calls

--------------------------------------------------------------------------------------

**************************************************************************************
