
Host: pocllab-ws

Timers On : Wed Apr  3 15:58:50 2024
Timers Off: Wed Apr  3 15:58:51 2024

Wall Time:        0.99 seconds

                                                       Time (seconds)
Module                                       User      System        Wall        Calls

--------------------------------------------------------------------------------------

**************************************************************************************

Host: pocllab-ws

Timers On : Wed Apr  3 15:59:31 2024
Timers Off: Wed Apr  3 15:59:32 2024

Wall Time:        1.07 seconds

                                                       Time (seconds)
Module                                       User      System        Wall        Calls

--------------------------------------------------------------------------------------

**************************************************************************************

Host: pocllab-ws

Timers On : Wed Apr  3 16:00:46 2024
Timers Off: Wed Apr  3 16:00:46 2024

Wall Time:        0.84 seconds

                                                       Time (seconds)
Module                                       User      System        Wall        Calls

--------------------------------------------------------------------------------------

**************************************************************************************

Host: pocllab-ws

Timers On : Wed Apr  3 16:00:54 2024
Timers Off: Wed Apr  3 16:00:55 2024

Wall Time:        0.80 seconds

                                                       Time (seconds)
Module                                       User      System        Wall        Calls

--------------------------------------------------------------------------------------

**************************************************************************************

Host: pocllab-ws

Timers On : Wed Apr  3 16:02:29 2024
Timers Off: Wed Apr  3 16:02:30 2024

Wall Time:        1.00 seconds

                                                       Time (seconds)
Module                                       User      System        Wall        Calls

--------------------------------------------------------------------------------------

**************************************************************************************

Host: pocllab-ws

Timers On : Wed Apr  3 16:02:43 2024
Timers Off: Wed Apr  3 16:02:44 2024

Wall Time:        1.45 seconds

                                                       Time (seconds)
Module                                       User      System        Wall        Calls

--------------------------------------------------------------------------------------

**************************************************************************************

Host: pocllab-ws

Timers On : Sat May  4 19:41:14 2024
Timers Off: Sat May  4 19:41:19 2024

Wall Time:        4.71 seconds

                                                       Time (seconds)
Module                                       User      System        Wall        Calls

--------------------------------------------------------------------------------------

**************************************************************************************

Host: pocllab-ws

Timers On : Sat May  4 19:42:44 2024
Timers Off: Sat May  4 19:42:48 2024

Wall Time:        3.84 seconds

                                                       Time (seconds)
Module                                       User      System        Wall        Calls

--------------------------------------------------------------------------------------

**************************************************************************************

Host: pocllab-ws

Timers On : Sat May  4 19:43:38 2024
Timers Off: Sat May  4 19:43:41 2024

Wall Time:        3.57 seconds

                                                       Time (seconds)
Module                                       User      System        Wall        Calls

--------------------------------------------------------------------------------------

**************************************************************************************

Host: pocllab-ws

Timers On : Sat May  4 19:43:52 2024
Timers Off: Sat May  4 19:43:56 2024

Wall Time:        3.98 seconds

                                                       Time (seconds)
Module                                       User      System        Wall        Calls

--------------------------------------------------------------------------------------

**************************************************************************************

Host: pocllab-ws

Timers On : Sat May  4 19:44:30 2024
Timers Off: Sat May  4 19:44:34 2024

Wall Time:        4.01 seconds

                                                       Time (seconds)
Module                                       User      System        Wall        Calls

--------------------------------------------------------------------------------------

**************************************************************************************

Host: pocllab-ws

Timers On : Sat May  4 19:44:48 2024
Timers Off: Sat May  4 19:44:52 2024

Wall Time:        3.77 seconds

                                                       Time (seconds)
Module                                       User      System        Wall        Calls

--------------------------------------------------------------------------------------

**************************************************************************************

Host: pocllab-ws

Timers On : Sat May  4 19:45:03 2024
Timers Off: Sat May  4 19:45:06 2024

Wall Time:        3.60 seconds

                                                       Time (seconds)
Module                                       User      System        Wall        Calls

--------------------------------------------------------------------------------------

**************************************************************************************

Host: pocllab-ws

Timers On : Mon May  6 20:09:33 2024
Timers Off: Mon May  6 20:09:34 2024

Wall Time:        1.21 seconds

                                                       Time (seconds)
Module                                       User      System        Wall        Calls

--------------------------------------------------------------------------------------

**************************************************************************************

Host: pocllab-ws

Timers On : Fri May 10 12:09:09 2024
Timers Off: Fri May 10 12:09:10 2024

Wall Time:        0.93 seconds

                                                       Time (seconds)
Module                                       User      System        Wall        Calls

--------------------------------------------------------------------------------------

**************************************************************************************

Host: pocllab-ws

Timers On : Fri May 10 14:12:27 2024
Timers Off: Fri May 10 14:12:29 2024

Wall Time:        1.26 seconds

                                                       Time (seconds)
Module                                       User      System        Wall        Calls

--------------------------------------------------------------------------------------

**************************************************************************************

Host: pocllab-ws

Timers On : Sat May 11 14:54:22 2024
Timers Off: Sat May 11 14:54:23 2024

Wall Time:        0.68 seconds

                                                       Time (seconds)
Module                                       User      System        Wall        Calls

--------------------------------------------------------------------------------------

**************************************************************************************

Host: pocllab-ws

Timers On : Sat May 11 22:02:57 2024
Timers Off: Sat May 11 22:02:58 2024

Wall Time:        1.26 seconds

                                                       Time (seconds)
Module                                       User      System        Wall        Calls

--------------------------------------------------------------------------------------

**************************************************************************************

Host: pocllab-ws

Timers On : Sun May 12 19:56:10 2024
Timers Off: Sun May 12 19:56:11 2024

Wall Time:        1.49 seconds

                                                       Time (seconds)
Module                                       User      System        Wall        Calls

--------------------------------------------------------------------------------------

**************************************************************************************

Host: pocllab-ws

Timers On : Sun May 26 16:54:38 2024
Timers Off: Sun May 26 16:54:40 2024

Wall Time:        1.17 seconds

                                                       Time (seconds)
Module                                       User      System        Wall        Calls

--------------------------------------------------------------------------------------

**************************************************************************************

Host: pocllab-ws

Timers On : Sun May 26 17:42:29 2024
Timers Off: Sun May 26 17:42:30 2024

Wall Time:        0.99 seconds

                                                       Time (seconds)
Module                                       User      System        Wall        Calls

--------------------------------------------------------------------------------------

**************************************************************************************

Host: pocllab-ws

Timers On : Sun May 26 17:43:02 2024
Timers Off: Sun May 26 17:43:03 2024

Wall Time:        1.15 seconds

                                                       Time (seconds)
Module                                       User      System        Wall        Calls

--------------------------------------------------------------------------------------

**************************************************************************************

Host: pocllab-ws

Timers On : Sun May 26 17:44:23 2024
Timers Off: Sun May 26 17:44:24 2024

Wall Time:        1.07 seconds

                                                       Time (seconds)
Module                                       User      System        Wall        Calls

--------------------------------------------------------------------------------------

**************************************************************************************

Host: pocllab-ws

Timers On : Sun May 26 17:44:54 2024
Timers Off: Sun May 26 17:44:55 2024

Wall Time:        0.99 seconds

                                                       Time (seconds)
Module                                       User      System        Wall        Calls

--------------------------------------------------------------------------------------

**************************************************************************************

Host: pocllab-ws

Timers On : Sun May 26 18:47:17 2024
Timers Off: Sun May 26 18:47:19 2024

Wall Time:        1.50 seconds

                                                       Time (seconds)
Module                                       User      System        Wall        Calls

--------------------------------------------------------------------------------------

**************************************************************************************

Host: pocllab-ws

Timers On : Mon May 27 12:01:15 2024
Timers Off: Mon May 27 12:01:16 2024

Wall Time:        0.96 seconds

                                                       Time (seconds)
Module                                       User      System        Wall        Calls

--------------------------------------------------------------------------------------

**************************************************************************************

Host: pocllab-ws

Timers On : Wed May 29 20:58:50 2024
Timers Off: Wed May 29 20:58:52 2024

Wall Time:        1.15 seconds

                                                       Time (seconds)
Module                                       User      System        Wall        Calls

--------------------------------------------------------------------------------------

**************************************************************************************

Host: pocllab-ws

Timers On : Thu May 30 13:05:37 2024
Timers Off: Thu May 30 13:05:38 2024

Wall Time:        1.06 seconds

                                                       Time (seconds)
Module                                       User      System        Wall        Calls

--------------------------------------------------------------------------------------

**************************************************************************************

Host: pocllab-ws

Timers On : Thu May 30 13:11:10 2024
Timers Off: Thu May 30 13:11:11 2024

Wall Time:        0.91 seconds

                                                       Time (seconds)
Module                                       User      System        Wall        Calls

--------------------------------------------------------------------------------------

**************************************************************************************

Host: pocllab-ws

Timers On : Sat Jun  1 14:16:23 2024
Timers Off: Sat Jun  1 14:16:25 2024

Wall Time:        1.21 seconds

                                                       Time (seconds)
Module                                       User      System        Wall        Calls

--------------------------------------------------------------------------------------

**************************************************************************************

Host: pocllab-ws

Timers On : Mon Jun  3 14:34:03 2024
Timers Off: Mon Jun  3 14:34:04 2024

Wall Time:        1.04 seconds

                                                       Time (seconds)
Module                                       User      System        Wall        Calls

--------------------------------------------------------------------------------------

**************************************************************************************

Host: pocllab-ws

Timers On : Tue Jun  4 16:51:54 2024
Timers Off: Tue Jun  4 16:51:55 2024

Wall Time:        1.09 seconds

                                                       Time (seconds)
Module                                       User      System        Wall        Calls

--------------------------------------------------------------------------------------

**************************************************************************************

Host: pocllab-ws

Timers On : Wed Jun  5 15:04:39 2024
Timers Off: Wed Jun  5 15:04:40 2024

Wall Time:        1.34 seconds

                                                       Time (seconds)
Module                                       User      System        Wall        Calls

--------------------------------------------------------------------------------------

**************************************************************************************

Host: pocllab-ws

Timers On : Thu Jun  6 19:14:45 2024
Timers Off: Thu Jun  6 19:14:46 2024

Wall Time:        1.23 seconds

                                                       Time (seconds)
Module                                       User      System        Wall        Calls

--------------------------------------------------------------------------------------

**************************************************************************************

Host: pocllab-ws

Timers On : Thu Jun  6 19:44:01 2024
Timers Off: Thu Jun  6 19:44:02 2024

Wall Time:        1.26 seconds

                                                       Time (seconds)
Module                                       User      System        Wall        Calls

--------------------------------------------------------------------------------------

**************************************************************************************

Host: pocllab-ws

Timers On : Thu Jun  6 19:58:16 2024
Timers Off: Thu Jun  6 19:58:16 2024

Wall Time:        0.98 seconds

                                                       Time (seconds)
Module                                       User      System        Wall        Calls

--------------------------------------------------------------------------------------

**************************************************************************************

Host: pocllab-ws

Timers On : Thu Jun  6 20:29:20 2024
Timers Off: Thu Jun  6 20:29:21 2024

Wall Time:        0.92 seconds

                                                       Time (seconds)
Module                                       User      System        Wall        Calls

--------------------------------------------------------------------------------------

**************************************************************************************

Host: pocllab-ws

Timers On : Thu Jun  6 20:29:35 2024
Timers Off: Thu Jun  6 20:29:36 2024

Wall Time:        0.89 seconds

                                                       Time (seconds)
Module                                       User      System        Wall        Calls

--------------------------------------------------------------------------------------

**************************************************************************************

Host: pocllab-ws

Timers On : Fri Jun  7 13:09:51 2024
Timers Off: Fri Jun  7 13:09:52 2024

Wall Time:        1.29 seconds

                                                       Time (seconds)
Module                                       User      System        Wall        Calls

--------------------------------------------------------------------------------------

**************************************************************************************

Host: pocllab-ws

Timers On : Fri Jun  7 13:11:43 2024
Timers Off: Fri Jun  7 13:11:45 2024

Wall Time:        1.65 seconds

                                                       Time (seconds)
Module                                       User      System        Wall        Calls

--------------------------------------------------------------------------------------

**************************************************************************************

Host: pocllab-ws

Timers On : Sun Jun  9 19:13:09 2024
Timers Off: Sun Jun  9 19:13:10 2024

Wall Time:        1.32 seconds

                                                       Time (seconds)
Module                                       User      System        Wall        Calls

--------------------------------------------------------------------------------------

**************************************************************************************

Host: pocllab-ws

Timers On : Tue Jun 11 20:29:28 2024
Timers Off: Tue Jun 11 20:29:31 2024

Wall Time:        2.43 seconds

                                                       Time (seconds)
Module                                       User      System        Wall        Calls

--------------------------------------------------------------------------------------

**************************************************************************************

Host: pocllab-ws

Timers On : Wed Jun 12 14:30:31 2024
Timers Off: Wed Jun 12 14:30:33 2024

Wall Time:        1.49 seconds

                                                       Time (seconds)
Module                                       User      System        Wall        Calls

--------------------------------------------------------------------------------------

**************************************************************************************

Host: pocllab-ws

Timers On : Thu Jun 13 10:05:52 2024
Timers Off: Thu Jun 13 10:05:55 2024

Wall Time:        2.64 seconds

                                                       Time (seconds)
Module                                       User      System        Wall        Calls

--------------------------------------------------------------------------------------

**************************************************************************************

Host: pocllab-ws

Timers On : Fri Jun 14 16:08:19 2024
Timers Off: Fri Jun 14 16:08:21 2024

Wall Time:        1.28 seconds

                                                       Time (seconds)
Module                                       User      System        Wall        Calls

--------------------------------------------------------------------------------------

**************************************************************************************
