
Host: pocllab-ws

Timers On : Wed Apr  3 12:23:56 2024
Timers Off: Wed Apr  3 12:23:57 2024

Wall Time:        0.79 seconds

                                                       Time (seconds)
Module                                       User      System        Wall        Calls

--------------------------------------------------------------------------------------

**************************************************************************************

Host: pocllab-ws

Timers On : Wed Apr  3 12:27:18 2024
Timers Off: Wed Apr  3 12:27:20 2024

Wall Time:        2.18 seconds

                                                       Time (seconds)
Module                                       User      System        Wall        Calls

--------------------------------------------------------------------------------------

**************************************************************************************

Host: pocllab-ws

Timers On : Wed Apr  3 14:56:47 2024
Timers Off: Wed Apr  3 14:56:49 2024

Wall Time:        2.24 seconds

                                                       Time (seconds)
Module                                       User      System        Wall        Calls

--------------------------------------------------------------------------------------

**************************************************************************************

Host: pocllab-ws

Timers On : Wed Apr  3 14:59:24 2024
Timers Off: Wed Apr  3 14:59:25 2024

Wall Time:        0.92 seconds

                                                       Time (seconds)
Module                                       User      System        Wall        Calls

--------------------------------------------------------------------------------------

**************************************************************************************

Host: pocllab-ws

Timers On : Wed Apr  3 15:00:45 2024
Timers Off: Wed Apr  3 15:01:07 2024

Wall Time:       21.48 seconds

                                                       Time (seconds)
Module                                       User      System        Wall        Calls
V: Grid                             :      0.000u      0.000s      0.718w      5 calls
build grid                          :      0.000u      0.000s      0.393w      5 calls
post-process grid                   :      0.000u      0.000s      0.323w      5 calls
DFH: sparsity prep                  :      0.000u      0.000s      0.077w      5 calls
Libint2ERI::Libint2ERI              :      0.000u      0.000s      0.232w     65 calls
DFH: initialize()                   :      0.000u      0.000s      0.686w      5 calls
DFH: AO Construction                :      0.000u      0.000s      0.127w      5 calls
DFH: AO-Met. Contraction            :      0.000u      0.000s      0.081w      5 calls
HF: Form core H                     :      0.000u      0.000s      0.066w      5 calls
HF: Form S/X                        :      0.000u      0.000s      0.006w      5 calls
HF: Guess                           :      0.000u      0.000s      0.145w      5 calls
SAD Guess                           :      0.000u      0.000s      0.143w      1 calls
HF: Form G                          :      0.000u      0.000s      7.989w     52 calls
RV: Form V                          :      0.000u      0.000s      7.693w     52 calls
Properties                          :      8.114p                          85989 calls
Functional                          :     21.355p                          85989 calls
V_xc                                :      6.879p                          78446 calls
JK: D                               :      0.000u      0.000s      0.001w     52 calls
JK: USO2AO                          :      0.000u      0.000s      0.000w     52 calls
JK: JK                              :      0.000u      0.000s      0.289w     52 calls
DFH: compute_JK()                   :      0.000u      0.000s      0.288w     52 calls
DFH: Grabbing AOs                   :      0.000u      0.000s      0.000w     52 calls
DFH: compute_J                      :      0.000u      0.000s      0.065w     52 calls
DFH: compute_K                      :      0.000u      0.000s      0.104w     52 calls
JK: AO2USO                          :      0.000u      0.000s      0.000w     52 calls
HF: Form F                          :      0.000u      0.000s      0.001w     52 calls
HF: Form D                          :      0.000u      0.000s      0.001w     52 calls
HF: DIIS                            :      0.000u      0.000s      0.795w     51 calls
HF: Form C                          :      0.000u      0.000s      0.068w     51 calls
Grad: V T Perturb                   :      0.000u      0.000s      0.018w      5 calls
Grad: S                             :      0.000u      0.000s      0.006w      5 calls
Grad: JK                            :      0.000u      0.000s      1.067w      5 calls
JKGrad: Amn                         :      0.000u      0.000s      0.301w      5 calls
JKGrad: Awmn                        :      0.000u      0.000s      0.000w      5 calls
JKGrad: AB                          :      0.000u      0.000s      0.240w      5 calls
JKGrad: UV                          :      0.000u      0.000s      0.017w      5 calls
JKGrad: ABx                         :      0.000u      0.000s      0.035w      5 calls
JKGrad: Amnx                        :      0.000u      0.000s      0.448w      5 calls
Grad: XC                            :      0.000u      0.000s      1.874w      5 calls
V_xc gradient                       :      1.517p                           7543 calls

--------------------------------------------------------------------------------------
V: Grid                             :      0.000u      0.000s      0.718w      5 calls
| build grid                        :      0.000u      0.000s      0.393w      5 calls
| post-process grid                 :      0.000u      0.000s      0.323w      5 calls
DFH: sparsity prep                  :      0.000u      0.000s      0.077w      5 calls
| Libint2ERI::Libint2ERI            :      0.000u      0.000s      0.052w      5 calls
DFH: initialize()                   :      0.000u      0.000s      0.686w      5 calls
| Libint2ERI::Libint2ERI            :      0.000u      0.000s      0.051w     25 calls
| DFH: AO Construction              :      0.000u      0.000s      0.127w      5 calls
| DFH: AO-Met. Contraction          :      0.000u      0.000s      0.081w      5 calls
HF: Form core H                     :      0.000u      0.000s      0.066w      5 calls
HF: Form S/X                        :      0.000u      0.000s      0.006w      5 calls
HF: Guess                           :      0.000u      0.000s      0.145w      5 calls
| SAD Guess                         :      0.000u      0.000s      0.143w      1 calls
HF: Form G                          :      0.000u      0.000s      7.989w     52 calls
| RV: Form V                        :      0.000u      0.000s      7.693w     52 calls
| | Properties                      :      4.343p                          78446 calls
| | Functional                      :     19.400p                          78446 calls
| | V_xc                            :      6.879p                          78446 calls
| JK: D                             :      0.000u      0.000s      0.001w     52 calls
| JK: USO2AO                        :      0.000u      0.000s      0.000w     52 calls
| JK: JK                            :      0.000u      0.000s      0.289w     52 calls
| | DFH: compute_JK()               :      0.000u      0.000s      0.288w     52 calls
| | | DFH: Grabbing AOs             :      0.000u      0.000s      0.000w     52 calls
| | | DFH: compute_J                :      0.000u      0.000s      0.065w     52 calls
| | | DFH: compute_K                :      0.000u      0.000s      0.104w     52 calls
| JK: AO2USO                        :      0.000u      0.000s      0.000w     52 calls
HF: Form F                          :      0.000u      0.000s      0.001w     52 calls
HF: Form D                          :      0.000u      0.000s      0.001w     52 calls
HF: DIIS                            :      0.000u      0.000s      0.795w     51 calls
HF: Form C                          :      0.000u      0.000s      0.068w     51 calls
Grad: V T Perturb                   :      0.000u      0.000s      0.018w      5 calls
Grad: S                             :      0.000u      0.000s      0.006w      5 calls
Grad: JK                            :      0.000u      0.000s      1.067w      5 calls
| JKGrad: Amn                       :      0.000u      0.000s      0.301w      5 calls
| | Libint2ERI::Libint2ERI          :      0.000u      0.000s      0.060w      5 calls
| JKGrad: Awmn                      :      0.000u      0.000s      0.000w      5 calls
| JKGrad: AB                        :      0.000u      0.000s      0.240w      5 calls
| | Libint2ERI::Libint2ERI          :      0.000u      0.000s      0.004w     20 calls
| JKGrad: UV                        :      0.000u      0.000s      0.017w      5 calls
| JKGrad: ABx                       :      0.000u      0.000s      0.035w      5 calls
| | Libint2ERI::Libint2ERI          :      0.000u      0.000s      0.001w      5 calls
| JKGrad: Amnx                      :      0.000u      0.000s      0.448w      5 calls
| | Libint2ERI::Libint2ERI          :      0.000u      0.000s      0.065w      5 calls
Grad: XC                            :      0.000u      0.000s      1.874w      5 calls
| Properties                        :      3.770p                           7543 calls
| Functional                        :      1.956p                           7543 calls
| V_xc gradient                     :      1.517p                           7543 calls

**************************************************************************************

Host: pocllab-ws

Timers On : Wed Apr  3 15:17:14 2024
Timers Off: Wed Apr  3 15:17:16 2024

Wall Time:        1.78 seconds

                                                       Time (seconds)
Module                                       User      System        Wall        Calls

--------------------------------------------------------------------------------------

**************************************************************************************

Host: pocllab-ws

Timers On : Wed Apr  3 15:17:41 2024
Timers Off: Wed Apr  3 15:17:43 2024

Wall Time:        1.66 seconds

                                                       Time (seconds)
Module                                       User      System        Wall        Calls

--------------------------------------------------------------------------------------

**************************************************************************************

Host: pocllab-ws

Timers On : Wed Apr  3 15:17:57 2024
Timers Off: Wed Apr  3 15:17:59 2024

Wall Time:        1.68 seconds

                                                       Time (seconds)
Module                                       User      System        Wall        Calls

--------------------------------------------------------------------------------------

**************************************************************************************

Host: pocllab-ws

Timers On : Wed Apr  3 15:18:23 2024
Timers Off: Wed Apr  3 15:18:25 2024

Wall Time:        1.74 seconds

                                                       Time (seconds)
Module                                       User      System        Wall        Calls

--------------------------------------------------------------------------------------

**************************************************************************************

Host: pocllab-ws

Timers On : Wed Apr  3 15:21:18 2024
Timers Off: Wed Apr  3 15:21:20 2024

Wall Time:        1.71 seconds

                                                       Time (seconds)
Module                                       User      System        Wall        Calls

--------------------------------------------------------------------------------------

**************************************************************************************

Host: pocllab-ws

Timers On : Wed Apr  3 15:21:33 2024
Timers Off: Wed Apr  3 15:21:35 2024

Wall Time:        1.83 seconds

                                                       Time (seconds)
Module                                       User      System        Wall        Calls

--------------------------------------------------------------------------------------

**************************************************************************************

Host: pocllab-ws

Timers On : Wed Apr  3 15:22:57 2024
Timers Off: Wed Apr  3 15:22:58 2024

Wall Time:        1.57 seconds

                                                       Time (seconds)
Module                                       User      System        Wall        Calls

--------------------------------------------------------------------------------------

**************************************************************************************

Host: pocllab-ws

Timers On : Wed Apr  3 15:23:38 2024
Timers Off: Wed Apr  3 15:23:40 2024

Wall Time:        1.76 seconds

                                                       Time (seconds)
Module                                       User      System        Wall        Calls

--------------------------------------------------------------------------------------

**************************************************************************************

Host: pocllab-ws

Timers On : Wed Apr  3 15:23:52 2024
Timers Off: Wed Apr  3 15:23:54 2024

Wall Time:        1.68 seconds

                                                       Time (seconds)
Module                                       User      System        Wall        Calls

--------------------------------------------------------------------------------------

**************************************************************************************

Host: pocllab-ws

Timers On : Wed Apr  3 15:24:27 2024
Timers Off: Wed Apr  3 15:24:28 2024

Wall Time:        1.68 seconds

                                                       Time (seconds)
Module                                       User      System        Wall        Calls

--------------------------------------------------------------------------------------

**************************************************************************************

Host: pocllab-ws

Timers On : Wed Apr  3 15:25:30 2024
Timers Off: Wed Apr  3 15:25:31 2024

Wall Time:        1.60 seconds

                                                       Time (seconds)
Module                                       User      System        Wall        Calls

--------------------------------------------------------------------------------------

**************************************************************************************

Host: pocllab-ws

Timers On : Wed Apr  3 15:28:00 2024
Timers Off: Wed Apr  3 15:28:02 2024

Wall Time:        1.67 seconds

                                                       Time (seconds)
Module                                       User      System        Wall        Calls

--------------------------------------------------------------------------------------

**************************************************************************************

Host: pocllab-ws

Timers On : Wed Apr  3 15:28:29 2024
Timers Off: Wed Apr  3 15:28:30 2024

Wall Time:        1.57 seconds

                                                       Time (seconds)
Module                                       User      System        Wall        Calls

--------------------------------------------------------------------------------------

**************************************************************************************

Host: pocllab-ws

Timers On : Wed Apr  3 15:28:48 2024
Timers Off: Wed Apr  3 15:28:49 2024

Wall Time:        1.64 seconds

                                                       Time (seconds)
Module                                       User      System        Wall        Calls

--------------------------------------------------------------------------------------

**************************************************************************************

Host: pocllab-ws

Timers On : Wed Apr  3 15:29:02 2024
Timers Off: Wed Apr  3 15:29:04 2024

Wall Time:        1.57 seconds

                                                       Time (seconds)
Module                                       User      System        Wall        Calls

--------------------------------------------------------------------------------------

**************************************************************************************

Host: pocllab-ws

Timers On : Wed Apr  3 15:29:19 2024
Timers Off: Wed Apr  3 15:29:20 2024

Wall Time:        1.51 seconds

                                                       Time (seconds)
Module                                       User      System        Wall        Calls

--------------------------------------------------------------------------------------

**************************************************************************************

Host: pocllab-ws

Timers On : Wed Apr  3 15:37:39 2024
Timers Off: Wed Apr  3 15:37:40 2024

Wall Time:        1.00 seconds

                                                       Time (seconds)
Module                                       User      System        Wall        Calls

--------------------------------------------------------------------------------------

**************************************************************************************

Host: pocllab-ws

Timers On : Wed Apr  3 15:40:02 2024
Timers Off: Wed Apr  3 15:40:03 2024

Wall Time:        1.69 seconds

                                                       Time (seconds)
Module                                       User      System        Wall        Calls

--------------------------------------------------------------------------------------

**************************************************************************************

Host: pocllab-ws

Timers On : Wed Apr  3 16:02:06 2024
Timers Off: Wed Apr  3 16:02:07 2024

Wall Time:        1.03 seconds

                                                       Time (seconds)
Module                                       User      System        Wall        Calls

--------------------------------------------------------------------------------------

**************************************************************************************

Host: pocllab-ws

Timers On : Wed Apr  3 16:15:05 2024
Timers Off: Wed Apr  3 16:15:06 2024

Wall Time:        1.09 seconds

                                                       Time (seconds)
Module                                       User      System        Wall        Calls

--------------------------------------------------------------------------------------

**************************************************************************************

Host: pocllab-ws

Timers On : Wed Apr  3 18:14:18 2024
Timers Off: Wed Apr  3 18:14:21 2024

Wall Time:        2.87 seconds

                                                       Time (seconds)
Module                                       User      System        Wall        Calls

--------------------------------------------------------------------------------------

**************************************************************************************

Host: pocllab-ws

Timers On : Wed Apr  3 18:15:47 2024
Timers Off: Wed Apr  3 18:16:03 2024

Wall Time:       16.21 seconds

                                                       Time (seconds)
Module                                       User      System        Wall        Calls

--------------------------------------------------------------------------------------

**************************************************************************************

Host: pocllab-ws

Timers On : Wed Apr  3 18:19:23 2024
Timers Off: Wed Apr  3 18:19:27 2024

Wall Time:        4.34 seconds

                                                       Time (seconds)
Module                                       User      System        Wall        Calls

--------------------------------------------------------------------------------------

**************************************************************************************

Host: pocllab-ws

Timers On : Wed Apr  3 18:20:19 2024
Timers Off: Wed Apr  3 18:20:23 2024

Wall Time:        4.20 seconds

                                                       Time (seconds)
Module                                       User      System        Wall        Calls

--------------------------------------------------------------------------------------

**************************************************************************************

Host: pocllab-ws

Timers On : Wed Apr  3 18:24:00 2024
Timers Off: Wed Apr  3 18:29:03 2024

Wall Time:      303.04 seconds

                                                       Time (seconds)
Module                                       User      System        Wall        Calls

--------------------------------------------------------------------------------------

**************************************************************************************

Host: pocllab-ws

Timers On : Wed Apr  3 18:24:00 2024
Timers Off: Wed Apr  3 18:29:03 2024

Wall Time:      302.98 seconds

                                                       Time (seconds)
Module                                       User      System        Wall        Calls

--------------------------------------------------------------------------------------

**************************************************************************************

Host: pocllab-ws

Timers On : Wed Apr  3 18:24:00 2024
Timers Off: Wed Apr  3 18:29:03 2024

Wall Time:      303.04 seconds

                                                       Time (seconds)
Module                                       User      System        Wall        Calls

--------------------------------------------------------------------------------------

**************************************************************************************

Host: pocllab-ws

Timers On : Wed Apr  3 18:24:00 2024
Timers Off: Wed Apr  3 18:29:03 2024

Wall Time:      303.05 seconds

                                                       Time (seconds)
Module                                       User      System        Wall        Calls

--------------------------------------------------------------------------------------

**************************************************************************************

Host: pocllab-ws

Timers On : Wed Apr  3 18:24:00 2024
Timers Off: Wed Apr  3 18:29:03 2024

Wall Time:      303.01 seconds

                                                       Time (seconds)
Module                                       User      System        Wall        Calls

--------------------------------------------------------------------------------------

**************************************************************************************

Host: pocllab-ws

Timers On : Wed Apr  3 18:24:00 2024
Timers Off: Wed Apr  3 18:29:03 2024

Wall Time:      302.99 seconds

                                                       Time (seconds)
Module                                       User      System        Wall        Calls

--------------------------------------------------------------------------------------

**************************************************************************************

Host: pocllab-ws

Timers On : Wed Apr  3 18:24:00 2024
Timers Off: Wed Apr  3 18:29:03 2024

Wall Time:      302.99 seconds

                                                       Time (seconds)
Host: pocllab-ws
MoTimers On : Wed Apr  3 18:24:00 2024
     User      System        Wall        Calls
Timers Off: Wed Apr  3 18:29:03 2024

Wall Time:      303.07 seconds

----------------------------------------------------

**************************************************************************************
Module                                       User      System        Wall        Calls

--------------------------------------------------------------------------------------

**************************************************************************************

Host: pocllab-ws

Timers On : Wed Apr  3 18:24:00 2024
Timers Off: Wed Apr  3 18:29:03 2024

Wall Time:      303.01 seconds

                                                       Time (seconds)
Module                                       User      System        Wall        Calls

--------------------------------------------------------------------------------------

**************************************************************************************

Host: pocllab-ws

Timers On : Wed Apr  3 18:24:00 2024
Timers Off: Wed Apr  3 18:29:03 2024

Wall Time:      303.08 seconds

                                                       Time (seconds)
Module                                       User      System        Wall        Calls

--------------------------------------------------------------------------------------

**************************************************************************************

Host: pocllab-ws

Timers On : Wed Apr  3 18:24:00 2024
Timers Off: Wed Apr  3 18:29:03 2024

Wall Time:      303.04 seconds

                                                       Time (seconds)
Module                                       User      System        Wall        Calls

--------------------------------------------------------------------------------------

**************************************************************************************

Host: pocllab-ws

Timers On : Wed Apr  3 18:24:00 2024
Timers Off: Wed Apr  3 18:29:03 2024

Wall Time:      303.09 seconds

                                                       Time (seconds)
Module                                       User      System        Wall        Calls

--------------------------------------------------------------------------------------

**************************************************************************************

Host: pocllab-ws

Timers On : Wed Apr  3 18:24:00 2024
Timers Off: Wed Apr  3 18:29:03 2024

Wall Time:      303.03 seconds

                                                       Time (seconds)
Module                                       User      System        Wall        Calls

--------------------------------------------------------------------------------------

**************************************************************************************

Host: pocllab-ws

Timers On : Wed Apr  3 18:24:00 2024
Timers Off: Wed Apr  3 18:29:03 2024

Wall Time:      303.04 seconds

                                                       Time (seconds)
Module                                       User      System        Wall        Calls

--------------------------------------------------------------------------------------

**************************************************************************************

Host: pocllab-ws

Timers On : Wed Apr  3 18:24:00 2024
Timers Off: Wed Apr  3 18:29:03 2024

Wall Time:      303.06 seconds

                                                       Time (seconds)
Module                                       User      System        Wall        Calls

--------------------------------------------------------------------------------------

**************************************************************************************

Host: pocllab-ws

Timers On : Wed Apr  3 18:24:00 2024
Timers Off: Wed Apr  3 18:29:03 2024

Wall Time:      303.06 seconds

                                                       Time (seconds)
Module                                       User      System        Wall        Calls

--------------------------------------------------------------------------------------

**************************************************************************************

Host: pocllab-ws

Timers On : Wed Apr  3 18:29:19 2024
Timers Off: Wed Apr  3 18:31:17 2024

Wall Time:      118.08 seconds

                                                       Time (seconds)
Module                                       User      System        Wall        Calls

--------------------------------------------------------------------------------------

**************************************************************************************

Host: pocllab-ws

Timers On : Wed Apr  3 18:29:19 2024
Timers Off: Wed Apr  3 18:31:17 2024

Wall Time:      118.04 seconds

                                                       Time (seconds)
Module                                       User      System        Wall        Calls

--------------------------------------------------------------------------------------

**************************************************************************************

Host: pocllab-ws

Timers On : Wed Apr  3 18:29:19 2024
Timers Off: Wed Apr  3 18:31:17 2024

Wall Time:      118.16 seconds

                                                       Time (seconds)
Module                                       User      System        Wall        Calls

--------------------------------------------------------------------------------------

**************************************************************************************

Host: pocllab-ws

Timers On : Wed Apr  3 18:29:19 2024
Timers Off: Wed Apr  3 18:31:17 2024

Wall Time:      118.04 seconds

                                                       Time (seconds)
Module                                       User      System        Wall        Calls

--------------------------------------------------------------------------------------

**************************************************************************************

Host: pocllab-ws

Timers On : Wed Apr  3 18:29:19 2024
Timers Off: Wed Apr  3 18:31:17 2024

Wall Time:      117.92 seconds

                                                       Time (seconds)
Module                                       User      System        Wall        Calls

--------------------------------------------------------------------------------------

**************************************************************************************

Host: pocllab-ws

Timers On : Wed Apr  3 18:29:19 2024
Timers Off: Wed Apr  3 18:31:17 2024

Wall Time:      118.10 seconds

                                                       Time (seconds)
Module                                       User      System        Wall        Calls

--------------------------------------------------------------------------------------

**************************************************************************************

Host: pocllab-ws

Timers On : Wed Apr  3 18:29:19 2024
Timers Off: Wed Apr  3 18:31:17 2024

Wall Time:      117.94 seconds

                                                       Time (seconds)
Module                                       User      System        Wall        Calls

--------------------------------------------------------------------------------------

**************************************************************************************

Host: pocllab-ws

Timers On : Wed Apr  3 18:29:19 2024
Timers Off: Wed Apr  3 18:31:17 2024

Wall Time:      118.13 seconds

                                                       Time (seconds)
Module                                       User      System        Wall        Calls

--------------------------------------------------------------------------------------

**************************************************************************************

Host: pocllab-ws

Timers On : Wed Apr  3 18:29:19 2024
Timers Off: Wed Apr  3 18:31:17 2024

Wall Time:      118.07 seconds

                                                       Time (seconds)
Module                                       User      System        Wall        Calls

--------------------------------------------------------------------------------------

**************************************************************************************

Host: pocllab-ws

Timers On : Wed Apr  3 18:29:19 2024
Timers Off: Wed Apr  3 18:31:17 2024

Wall Time:      118.08 seconds


                                                     Time (seconds)
Module                                       User      System        Wall        Calls
Host: pocllab-ws

--------------------------------------------------------------------------------------
Timers On : Wed Apr  3 18:29:19 2024
**************************************************
Timers Off: Wed Apr  3 18:31:17 2024

Wall Time:      118.06 seconds

                                                       Time (seconds)
Module                                       User      System        Wall        Calls

--------------------------------------------------------------------------------------

**************************************************************************************

Host: pocllab-ws

Timers On : Wed Apr  3 18:29:19 2024
Timers Off: Wed Apr  3 18:31:17 2024

Wall Time:      117.92 seconds

                                                       Time (seconds)
Module                                       User      System        Wall        Calls

--------------------------------------------------------------------------------------

**************************************************************************************

Host: pocllab-ws

Timers On : Wed Apr  3 18:29:19 2024
Timers Off: Wed Apr  3 18:31:17 2024

Wall Time:      118.13 seconds

                                                       Time (seconds)
Module                                       User      System        Wall        Calls

--------------------------------------------------------------------------------------

**************************************************************************************

Host: pocllab-ws

Timers On : Wed Apr  3 18:29:19 2024
Timers Off: Wed Apr  3 18:31:17 2024

Wall Time:      118.13 seconds

                                                       Time (seconds)
Module                                       User      System        Wall        Calls

--------------------------------------------------------------------------------------

**************************************************************************************

Host: pocllab-ws

Timers On : Wed Apr  3 18:29:19 2024
Timers Off: Wed Apr  3 18:31:17 2024

Wall Time:      117.95 seconds

                                                       Time (seconds)
Module                                       User      System        Wall        Calls

--------------------------------------------------------------------------------------

**************************************************************************************

Host: pocllab-ws

Timers On : Wed Apr  3 18:29:19 2024
Timers Off: Wed Apr  3 18:31:17 2024

Wall Time:      118.08 seconds

                                                       Time (seconds)
Module                                       User      System        Wall        Calls

--------------------------------------------------------------------------------------

**************************************************************************************

Host: pocllab-ws

Timers On : Wed Apr  3 18:29:19 2024
Timers Off: Wed Apr  3 18:31:17 2024

Wall Time:      118.12 seconds

                                                       Time (seconds)
Module                                       User      System        Wall        Calls

--------------------------------------------------------------------------------------

**************************************************************************************


st: pocllab-ws
Host: pocllab-ws


Timers On : Wed ApTimers On : Wed Apr  3 18:29:19 2024
Ti
rs Off: Wed Apr  3 18:31:17 2024

Host: pocllab-ws
8.08 seconds


Host: pocllab-ws
Host: pocllab-ws
                                                                           Time (seconds)
Mo
Wall Time:      118.12 seconds


     User      System        Wall        Calls
Timers On : Wed Apr  3 18:29:19 2024
Timers Off: Wed Apr  3 18:31:17 2024

--------------------------------------------------------------------------------------

Wall Time:      118.04 seconds

****************************************************

--------------------------------------------------------------------------------------
                                                       Time (seconds)
*****************

dule                                       User      System        Wall        Calls

--------------------------------------------------------------------------------------
Host: pocllab-ws


**************************************************************************************

**************************************************************************************
Timers Off: Wed Apr  3 18:31:17 2024

Host: pocllab-ws
118.11 seconds

                                                       Time (seconds)

Module                                Timers Off: Wed Apr  3 18:31:17 2024
     Calls
Timers Off: Wed Apr  3 18:31:17 2024

Wall Time:      118.05 seconds

----------------------------------------------------

**************************************************************************************
                                                       Time (seconds)
Module                                       User      System        Wall        Calls

--------------------------------------------------------------------------------------

**************************************************************************************

**************************************************************************************

Host: pocllab-ws

Timers On : Wed Apr  3 18:29:19 2024
Timers Off: Wed Apr  3 18:31:17 2024

Wall Time:      117.99 seconds

                                                       Time (seconds)
Module                                       User      System        Wall        Calls

--------------------------------------------------------------------------------------

**************************************************************************************
Host: pocllab-ws

Timers On : Wed Apr  3 18:29:19 2024
Timers Off: Wed Apr  3 18:31:17 2024

Wall Time:      117.99 seconds

                                                       Time (seconds)
Module                                       User      System        Wall        Calls

--------------------------------------------------------------------------------------

**************************************************************************************

Host: pocllab-ws

Timers On : Wed Apr  3 18:29:19 2024
Timers Off: Wed Apr  3 18:31:17 2024

Wall Time:      118.07 seconds

                                                       Time (seconds)
Module                                       User      System        Wall        Calls

--------------------------------------------------------------------------------------

**************************************************************************************

Host: pocllab-ws

Timers On : Wed Apr  3 18:29:19 2024
Timers Off: Wed Apr  3 18:31:17 2024

Wall Time:      117.95 seconds

                                                       Time (seconds)
Module                                       User      System        Wall        Calls

--------------------------------------------------------------------------------------

**************************************************************************************

Host: pocllab-ws

Timers On : Wed Apr  3 18:29:19 2024
Timers Off: Wed Apr  3 18:31:17 2024

Wall Time:      118.23 seconds

                                                       Time (seconds)
Module                                       User      System        Wall        Calls

--------------------------------------------------------------------------------------

**************************************************************************************

Host: pocllab-ws

Timers On : Wed Apr  3 18:29:19 2024
Timers Off: Wed Apr  3 18:31:19 2024

Wall Time:      119.99 seconds

                                                       Time (seconds)
Module                                       User      System        Wall        Calls

--------------------------------------------------------------------------------------

**************************************************************************************

Host: pocllab-ws

Timers On : Wed Apr  3 18:29:19 2024
Timers Off: Wed Apr  3 18:31:20 2024

Wall Time:      120.81 seconds

                                                       Time (seconds)
Module                                       User      System        Wall        Calls

--------------------------------------------------------------------------------------

**************************************************************************************

Host: pocllab-ws

Timers On : Wed Apr  3 18:29:19 2024
Timers Off: Wed Apr  3 18:31:20 2024

Wall Time:      121.65 seconds

                                                       Time (seconds)
Module                                       User      System        Wall        Calls

--------------------------------------------------------------------------------------

**************************************************************************************

Host: pocllab-ws

Timers On : Wed Apr  3 18:29:19 2024
Timers Off: Wed Apr  3 18:31:20 2024

Wall Time:      121.46 seconds

                                                       Time (seconds)
Module                                       User      System        Wall        Calls

--------------------------------------------------------------------------------------

**************************************************************************************

Host: pocllab-ws

Timers On : Wed Apr  3 18:41:21 2024
Timers Off: Wed Apr  3 18:41:40 2024

Wall Time:       19.73 seconds

                                                       Time (seconds)
Module                                       User      System        Wall        Calls

--------------------------------------------------------------------------------------

**************************************************************************************

Host: pocllab-ws

Timers On : Wed Apr  3 18:42:48 2024
Timers Off: Wed Apr  3 18:42:54 2024

Wall Time:        6.38 seconds

                                                       Time (seconds)
Module                                       User      System        Wall        Calls

--------------------------------------------------------------------------------------

**************************************************************************************

Host: pocllab-ws

Timers On : Wed Apr  3 18:45:38 2024
Timers Off: Wed Apr  3 18:45:45 2024

Wall Time:        6.42 seconds

                                                       Time (seconds)
Module                                       User      System        Wall        Calls

--------------------------------------------------------------------------------------

**************************************************************************************

Host: pocllab-ws

Timers On : Wed Apr  3 18:50:16 2024
Timers Off: Wed Apr  3 18:50:22 2024

Wall Time:        5.80 seconds

                                                       Time (seconds)
Module                                       User      System        Wall        Calls

--------------------------------------------------------------------------------------

**************************************************************************************

Host: pocllab-ws

Timers On : Wed Apr  3 18:57:10 2024
Timers Off: Wed Apr  3 18:57:19 2024

Wall Time:        8.51 seconds

                                                       Time (seconds)
Module                                       User      System        Wall        Calls

--------------------------------------------------------------------------------------

**************************************************************************************

Host: pocllab-ws

Timers On : Wed Apr  3 18:58:35 2024
Timers Off: Wed Apr  3 18:58:42 2024

Wall Time:        7.55 seconds

                                                       Time (seconds)
Module                                       User      System        Wall        Calls

--------------------------------------------------------------------------------------

**************************************************************************************

Host: pocllab-ws

Timers On : Wed Apr  3 19:02:24 2024
Timers Off: Wed Apr  3 19:02:33 2024

Wall Time:        9.72 seconds

                                                       Time (seconds)
Module                                       User      System        Wall        Calls

--------------------------------------------------------------------------------------

**************************************************************************************

Host: pocllab-ws

Timers On : Wed Apr  3 19:03:24 2024
Timers Off: Wed Apr  3 19:03:39 2024

Wall Time:       14.74 seconds

                                                       Time (seconds)
Module                                       User      System        Wall        Calls

--------------------------------------------------------------------------------------

**************************************************************************************

Host: pocllab-ws

Timers On : Wed Apr  3 19:04:12 2024
Timers Off: Wed Apr  3 19:04:29 2024

Wall Time:       16.39 seconds

                                                       Time (seconds)
Module                                       User      System        Wall        Calls

--------------------------------------------------------------------------------------

**************************************************************************************

Host: pocllab-ws

Timers On : Wed Apr  3 19:05:08 2024
Timers Off: Wed Apr  3 19:05:25 2024

Wall Time:       16.33 seconds

                                                       Time (seconds)
Module                                       User      System        Wall        Calls

--------------------------------------------------------------------------------------

**************************************************************************************

Host: pocllab-ws

Timers On : Wed Apr  3 19:07:05 2024
Timers Off: Wed Apr  3 19:07:31 2024

Wall Time:       25.54 seconds

                                                       Time (seconds)
Module                                       User      System        Wall        Calls

--------------------------------------------------------------------------------------

**************************************************************************************

Host: pocllab-ws

Timers On : Wed Apr  3 19:08:34 2024
Timers Off: Wed Apr  3 19:08:59 2024

Wall Time:       25.75 seconds

                                                       Time (seconds)
Module                                       User      System        Wall        Calls

--------------------------------------------------------------------------------------

**************************************************************************************

Host: pocllab-ws

Timers On : Wed Apr  3 19:12:09 2024
Timers Off: Wed Apr  3 19:12:34 2024

Wall Time:       25.25 seconds

                                                       Time (seconds)
Module                                       User      System        Wall        Calls

--------------------------------------------------------------------------------------

**************************************************************************************

Host: pocllab-ws

Timers On : Wed Apr  3 19:13:35 2024
Timers Off: Wed Apr  3 19:14:01 2024

Wall Time:       25.71 seconds

                                                       Time (seconds)
Module                                       User      System        Wall        Calls

--------------------------------------------------------------------------------------

**************************************************************************************

Host: pocllab-ws

Timers On : Wed Apr  3 19:14:22 2024
Timers Off: Wed Apr  3 19:14:46 2024

Wall Time:       24.39 seconds

                                                       Time (seconds)
Module                                       User      System        Wall        Calls

--------------------------------------------------------------------------------------

**************************************************************************************

Host: pocllab-ws

Timers On : Wed Apr  3 19:35:13 2024
Timers Off: Wed Apr  3 19:35:37 2024

Wall Time:       24.60 seconds

                                                       Time (seconds)
Module                                       User      System        Wall        Calls

--------------------------------------------------------------------------------------

**************************************************************************************

Host: pocllab-ws

Timers On : Wed Apr  3 18:55:00 2024
Timers Off: Wed Apr  3 20:37:00 2024

Wall Time:     6119.30 seconds

                                                       Time (seconds)
Module                                       User      System        Wall        Calls

--------------------------------------------------------------------------------------

**************************************************************************************

Host: pocllab-ws

Timers On : Wed Apr  3 18:55:00 2024
Timers Off: Wed Apr  3 20:37:00 2024

Wall Time:     6119.40 seconds

                                                       Time (seconds)
Module                                       User      System        Wall        Calls

--------------------------------------------------------------------------------------

**************************************************************************************

Host: pocllab-ws

Timers On : Wed Apr  3 18:55:01 2024
Timers Off: Wed Apr  3 20:37:00 2024

Wall Time:     6119.14 seconds

                                                       Time (seconds)
Module                                       User      System        Wall        Calls

--------------------------------------------------------------------------------------

**************************************************************************************

Host: pocllab-ws

Timers On : Wed Apr  3 18:55:00 2024
Timers Off: Wed Apr  3 20:37:00 2024

Wall Time:     6119.38 seconds

                                                       Time (seconds)
Module                                       User      System        Wall        Calls

--------------------------------------------------------------------------------------

**************************************************************************************

Host: pocllab-ws

Timers On : Wed Apr  3 18:55:01 2024
Timers Off: Wed Apr  3 20:37:00 2024

Wall Time:     6119.14 seconds

                                                       Time (seconds)
Module                                       User      System        Wall        Calls

--------------------------------------------------------------------------------------

**************************************************************************************

Host: pocllab-ws

Timers On : Wed Apr  3 18:55:00 2024
Timers Off: Wed Apr  3 20:37:00 2024

Wall Time:     6119.58 seconds

                                                       Time (seconds)
Module                                       User      System        Wall        Calls

--------------------------------------------------------------------------------------

**************************************************************************************

Host: pocllab-ws

Timers On : Wed Apr  3 18:55:01 2024
Timers Off: Wed Apr  3 20:37:00 2024

Wall Time:     6119.10 seconds

                                                       Time (seconds)
Module                                       User      System        Wall        Calls

--------------------------------------------------------------------------------------

**************************************************************************************

Host: pocllab-ws

Timers On : Wed Apr  3 18:55:01 2024
Timers Off: Wed Apr  3 20:37:00 2024

Wall Time:     6119.07 seconds

                                                       Time (seconds)
Module                                       User      System        Wall        Calls

--------------------------------------------------------------------------------------

**************************************************************************************

Host: pocllab-ws

Timers On : Wed Apr  3 18:55:00 2024
Timers Off: Wed Apr  3 20:37:00 2024

Wall Time:     6119.26 seconds

                                                       Time (seconds)
Module                                       User      System        Wall        Calls

--------------------------------------------------------------------------------------

**************************************************************************************

Host: pocllab-ws

Timers On : Wed Apr  3 18:55:01 2024
Timers Off: Wed Apr  3 20:37:00 2024

Wall Time:     6119.07 seconds

                                                       Time (seconds)
Module                                       User      System        Wall        Calls

--------------------------------------------------------------------------------------

**************************************************************************************

Host: pocllab-ws

Timers On : Wed Apr  3 18:55:00 2024
Timers Off: Wed Apr  3 20:37:00 2024

Wall Time:     6119.29 seconds

                                                       Time (seconds)
Module                                       User      System        Wall        Calls

--------------------------------------------------------------------------------------

**************************************************************************************

Host: pocllab-ws

Timers On : Wed Apr  3 18:55:00 2024
Timers Off: Wed Apr  3 20:37:00 2024

Wall Time:     6119.30 seconds

                                                       Time (seconds)
Module                                       User      System        Wall        Calls

--------------------------------------------------------------------------------------

**************************************************************************************

Host: pocllab-ws

Timers On : Wed Apr  3 18:55:00 2024
Timers Off: Wed Apr  3 20:37:00 2024

Wall Time:     6119.66 seconds

                                                       Time (seconds)
Module                                       User      System        Wall        Calls

--------------------------------------------------------------------------------------

**************************************************************************************

Host: pocllab-ws

Timers On : Wed Apr  3 18:55:00 2024
Timers Off: Wed Apr  3 20:37:00 2024

Wall Time:     6119.58 seconds

                                                       Time (seconds)
Module                                       User      System        Wall        Calls

--------------------------------------------------------------------------------------

**************************************************************************************

Host: pocllab-ws

Timers On : Wed Apr  3 18:55:01 2024
Timers Off: Wed Apr  3 20:37:00 2024

Wall Time:     6119.15 seconds

                                                       Time (seconds)
Module                                       User      System        Wall        Calls

--------------------------------------------------------------------------------------

**************************************************************************************

Host: pocllab-ws

Timers On : Wed Apr  3 18:55:01 2024
Timers Off: Wed Apr  3 20:37:00 2024

Wall Time:     6119.18 seconds

                                                       Time (seconds)
Module                                       User      System        Wall        Calls

--------------------------------------------------------------------------------------

**************************************************************************************

Host: pocllab-ws

Timers On : Wed Apr  3 18:55:00 2024
Timers Off: Wed Apr  3 20:37:00 2024

Wall Time:     6119.32 seconds

                                                       Time (seconds)
Module                                       User      System        Wall        Calls

--------------------------------------------------------------------------------------

**************************************************************************************

Host: pocllab-ws

Timers On : Wed Apr  3 18:55:00 2024
Timers Off: Wed Apr  3 20:37:00 2024

Wall Time:     6119.61 seconds

                                                       Time (seconds)
Module                                       User      System        Wall        Calls

--------------------------------------------------------------------------------------

**************************************************************************************
Host: pocllab-ws

Timers On : Wed Apr  3 18:55:01 2024
Timers Off: Wed Apr  3 20:37:00 2024

Wall Time:     6119.25 seconds

                                                       Time (seconds)
Module                                       User      System        Wall        Calls

--------------------------------------------------------------------------------------

**************************************************************************************

Host: pocllab-ws

Timers On : Wed Apr  3 18:55:00 2024
Timers Off: Wed Apr  3 20:37:00 2024

Wall Time:     6119.29 seconds

                                                       Time (seconds)
Module                                       User      System        Wall        Calls

--------------------------------------------------------------------------------------

**************************************************************************************

Host: pocllab-ws

Timers On : Wed Apr  3 18:55:01 2024
Timers Off: Wed Apr  3 20:37:00 2024

Wall Time:     6119.08 seconds

                                                       Time (seconds)
Module                                       User      System        Wall        Calls

--------------------------------------------------------------------------------------

**************************************************************************************

Host: pocllab-ws

Timers On : Wed Apr  3 18:55:01 2024
Timers Off: Wed Apr  3 20:37:00 2024

Wall Time:     6119.14 seconds

                                                       Time (seconds)
Module                                       User      System        Wall        Calls

--------------------------------------------------------------------------------------

**************************************************************************************

Host: pocllab-ws

Timers On : Wed Apr  3 18:55:00 2024
Timers Off: Wed Apr  3 20:37:00 2024

Wall Time:     6119.52 seconds

                                                       Time (seconds)
Module                                       User      System        Wall        Calls

--------------------------------------------------------------------------------------

**************************************************************************************

Host: pocllab-ws

Timers On : Wed Apr  3 18:55:00 2024
Timers Off: Wed Apr  3 20:37:00 2024

Wall Time:     6119.32 seconds

                                                       Time (seconds)
Module                                       User      System        Wall        Calls

--------------------------------------------------------------------------------------

**************************************************************************************

Host: pocllab-ws

Timers On : Wed Apr  3 18:55:01 2024
Timers Off: Wed Apr  3 20:37:00 2024

Wall Time:     6119.16 seconds

                                                       Time (seconds)
Module                                       User      System        Wall        Calls

--------------------------------------------------------------------------------------

**************************************************************************************

Host: pocllab-ws

Timers On : Wed Apr  3 18:55:00 2024
Timers Off: Wed Apr  3 20:37:00 2024

Wall Time:     6119.66 seconds

                                                       Time (seconds)
Module                                       User      System        Wall        Calls

--------------------------------------------------------------------------------------

**************************************************************************************

Host: pocllab-ws

Timers On : Wed Apr  3 18:55:00 2024
Timers Off: Wed Apr  3 20:37:00 2024

Wall Time:     6119.62 seconds

                                                       Time (seconds)
Module                                       User      System        Wall        Calls

--------------------------------------------------------------------------------------

**************************************************************************************

Host: pocllab-ws

Timers On : Wed Apr  3 18:55:01 2024
Timers Off: Wed Apr  3 20:37:00 2024

Wall Time:     6119.15 seconds

                                                       Time (seconds)
Module                                       User      System        Wall        Calls

--------------------------------------------------------------------------------------

**************************************************************************************

Host: pocllab-ws

Timers On : Wed Apr  3 18:55:00 2024
Timers Off: Wed Apr  3 20:37:00 2024

Wall Time:     6119.41 seconds

                                                       Time (seconds)
Module                                       User      System        Wall        Calls

--------------------------------------------------------------------------------------

**************************************************************************************

Host: pocllab-ws

Timers On : Wed Apr  3 18:55:00 2024
Timers Off: Wed Apr  3 20:37:00 2024

Wall Time:     6119.68 seconds

                                                       Time (seconds)
Module                                       User      System        Wall        Calls

--------------------------------------------------------------------------------------

**************************************************************************************

Host: pocllab-ws

Timers On : Wed Apr  3 18:55:01 2024
Timers Off: Wed Apr  3 20:37:00 2024

Wall Time:     6119.22 seconds

                                                       Time (seconds)
Module                                       User      System        Wall        Calls

--------------------------------------------------------------------------------------

**************************************************************************************

Host: pocllab-ws

Timers On : Wed Apr  3 18:55:00 2024
Timers Off: Wed Apr  3 20:37:00 2024

Wall Time:     6119.60 seconds

                                                       Time (seconds)
Module                                       User      System        Wall        Calls

--------------------------------------------------------------------------------------

**************************************************************************************

Host: pocllab-ws

Timers On : Wed Apr  3 18:55:01 2024
Timers Off: Wed Apr  3 20:37:00 2024

Wall Time:     6119.10 seconds

                                                       Time (seconds)
Module                                       User      System        Wall        Calls

--------------------------------------------------------------------------------------

**************************************************************************************

Host: pocllab-ws

Timers On : Wed Apr  3 18:54:56 2024
Timers Off: Wed Apr  3 20:37:00 2024

Wall Time:     6124.14 seconds

                                                       Time (seconds)
Module                                       User      System        Wall        Calls

--------------------------------------------------------------------------------------

**************************************************************************************

Host: pocllab-ws

Timers On : Wed Apr  3 18:55:01 2024
Timers Off: Wed Apr  3 20:37:01 2024

Wall Time:     6119.78 seconds

                                                       Time (seconds)
Module                                       User      System        Wall        Calls

--------------------------------------------------------------------------------------

**************************************************************************************

Host: pocllab-ws

Timers On : Wed Apr  3 18:55:01 2024
Timers Off: Wed Apr  3 20:37:01 2024

Wall Time:     6119.79 seconds

                                                       Time (seconds)
Module                                       User      System        Wall        Calls

--------------------------------------------------------------------------------------

**************************************************************************************

Host: pocllab-ws

Timers On : Wed Apr  3 18:55:00 2024
Timers Off: Wed Apr  3 20:37:01 2024

Wall Time:     6119.95 seconds

                                                       Time (seconds)
Module                                       User      System        Wall        Calls

--------------------------------------------------------------------------------------

**************************************************************************************

Host: pocllab-ws

Timers On : Wed Apr  3 18:55:01 2024
Timers Off: Wed Apr  3 20:37:01 2024

Wall Time:     6119.85 seconds

                                                       Time (seconds)
Module                                       User      System        Wall        Calls

--------------------------------------------------------------------------------------

**************************************************************************************

Host: pocllab-ws

Timers On : Wed Apr  3 18:55:01 2024
Timers Off: Wed Apr  3 20:37:01 2024

Wall Time:     6119.84 seconds

                                                       Time (seconds)
Module                                       User      System        Wall        Calls

--------------------------------------------------------------------------------------

**************************************************************************************

Host: pocllab-ws

Timers On : Wed Apr  3 18:55:01 2024
Timers Off: Wed Apr  3 20:37:01 2024

Wall Time:     6119.95 seconds

                                                       Time (seconds)
Module                                       User      System        Wall        Calls

--------------------------------------------------------------------------------------

**************************************************************************************

Host: pocllab-ws

Timers On : Wed Apr  3 18:55:01 2024
Timers Off: Wed Apr  3 20:37:01 2024

Wall Time:     6119.89 seconds

                                                       Time (seconds)
Module                                       User      System        Wall        Calls

--------------------------------------------------------------------------------------

**************************************************************************************

Host: pocllab-ws

Timers On : Wed Apr  3 18:55:01 2024
Timers Off: Wed Apr  3 20:37:01 2024

Wall Time:     6119.95 seconds

                                                       Time (seconds)
Module                                       User      System        Wall        Calls

--------------------------------------------------------------------------------------

**************************************************************************************

Host: pocllab-ws

Timers On : Wed Apr  3 18:55:01 2024
Timers Off: Wed Apr  3 20:37:01 2024

Wall Time:     6119.98 seconds

                                                       Time (seconds)
Module                                       User      System        Wall        Calls

--------------------------------------------------------------------------------------

**************************************************************************************

Host: pocllab-ws

Timers On : Wed Apr  3 18:55:01 2024
Timers Off: Wed Apr  3 20:37:01 2024

Wall Time:     6119.88 seconds

                                                       Time (seconds)
Module                                       User      System        Wall        Calls

--------------------------------------------------------------------------------------

**************************************************************************************

Host: pocllab-ws

Timers On : Wed Apr  3 18:55:00 2024
Timers Off: Wed Apr  3 20:37:01 2024

Wall Time:     6120.31 seconds

                                                       Time (seconds)
Module                                       User      System        Wall        Calls

--------------------------------------------------------------------------------------

**************************************************************************************

Host: pocllab-ws

Timers On : Wed Apr  3 18:55:00 2024
Timers Off: Wed Apr  3 20:37:01 2024

Wall Time:     6120.54 seconds

                                                       Time (seconds)

dule                                       User      System        Wall        Calls
Host: pocllab-ws

Timers On : Wed Apr  3 18:55:00 2024
Timers Off: Wed Apr  3 20:37:01 2024

Wall Time:     6120.56 seconds

                                                       Time (seconds)
Module                                       User      System        Wall        Calls

--------------------------------------------------------------------------------------

**************************************************************************************

--------------------------------------------------------------------------------------

**************************************************************************************

Host: pocllab-ws

Timers On : Wed Apr  3 18:55:00 2024
Timers Off: Wed Apr  3 20:37:01 2024

Wall Time:     6120.07 seconds

                                                       Time (seconds)
Module                                       User      System        Wall        Calls

--------------------------------------------------------------------------------------

**************************************************************************************

Host: pocllab-ws

Timers On : Wed Apr  3 18:55:00 2024
Timers Off: Wed Apr  3 20:37:01 2024

Wall Time:     6120.27 seconds

                                                       Time (seconds)
Module                                       User      System        Wall        Calls

--------------------------------------------------------------------------------------

**************************************************************************************
Host: pocllab-ws

Timers On : Wed Apr  3 18:55:00 2024
Timers Off: Wed Apr  3 20:37:01 2024

Wall Time:     6120.46 seconds

                                                       Time (seconds)
Module                                       User      System        Wall        Calls

--------------------------------------------------------------------------------------

**************************************************************************************

Host: pocllab-ws

Timers On : Wed Apr  3 18:55:00 2024
Timers Off: Wed Apr  3 20:37:01 2024

Wall Time:     6120.44 seconds

                                                       Time (seconds)
Module                                       User      System        Wall        Calls

--------------------------------------------------------------------------------------

**************************************************************************************

Host: pocllab-ws

Timers On : Wed Apr  3 18:55:01 2024
Timers Off: Wed Apr  3 20:37:01 2024

Wall Time:     6119.98 seconds

                                                       Time (seconds)
Module                                       User      System        Wall        Calls

--------------------------------------------------------------------------------------

**************************************************************************************

Host: pocllab-ws

Timers On : Wed Apr  3 18:55:00 2024
Timers Off: Wed Apr  3 20:37:01 2024

Wall Time:     6120.41 seconds

                                                       Time (seconds)
Module                                       User      System        Wall        Calls

--------------------------------------------------------------------------------------

**************************************************************************************

Host: pocllab-ws

Timers On : Wed Apr  3 18:55:00 2024
Timers Off: Wed Apr  3 20:37:01 2024

Wall Time:     6120.31 seconds

                                                       Time (seconds)
Module                                       User      System        Wall        Calls

--------------------------------------------------------------------------------------

**************************************************************************************

Host: pocllab-ws

Timers On : Wed Apr  3 18:55:00 2024
Timers Off: Wed Apr  3 20:37:01 2024

Wall Time:     6120.46 seconds

                                                       Time (seconds)
Module                                       User      System        Wall        Calls

Host: pocllab-ws

Timers On : Wed Apr  3 18:55:00 2024
Timers Off: Wed Apr  3 20:37:01 2024

Wall Time:     6120.35 seconds

                                                       Time (seconds)
Module                                       User      System        Wall        Calls

--------------------------------------------------------------------------------------

**************************************************************************************

--------------------------------------------------------------------------------------

**************************************************************************************

Host: pocllab-ws

Timers On : Wed Apr  3 18:55:01 2024
Timers Off: Wed Apr  3 20:37:01 2024

Wall Time:     6119.90 seconds

                                                       Time (seconds)
Module                                       User      System        Wall        Calls

--------------------------------------------------------------------------------------

**************************************************************************************

Host: pocllab-ws

Timers On : Wed Apr  3 18:55:01 2024
Timers Off: Wed Apr  3 20:37:01 2024

Wall Time:     6119.98 seconds

                                                       Time (seconds)

dule                                       User      System        Wall        Calls
Host: pocllab-ws

Timers On : Wed Apr  3 18:55:01 2024
Timers Off: Wed Apr  3 20:37:01 2024

Wall Time:     6119.99 seconds

Host: pocllab-ws
                                     Time (seconds)
Module                                       User      System        Wall        Calls

--------------------------------------------------------------------------------------

**************************************************************************************
Timers On : Wed Apr  3 18:55:00 2024
Timers Off: Wed Apr  3 20:37:01 2024

--------------------------------------------------------------------------------------

**************************************************************************************

Host: pocllab-ws

Timers On : Wed Apr  3 18:55:00 2024
Timers Off: Wed Apr  3 20:37:01 2024

Wall Time:     6120.55 seconds

                                                       Time (seconds)
Module                                       User      System        Wall        Calls

--------------------------------------------------------------------------------------

**************************************************************************************

Wall Time:     6120.19 seconds

d Apr  3 18:55:01 2024

Timers Off: Wed Apr  3 20:37:01 2024
Timers On : Wed Apr  3 18:55:00 2024

Wall Time:     6120.07 seconds



                                                       Time (seconds)
Timers On : Wed Apr  3 18:55:01 2024
Module                                       User      System        Wall        Calls
Timers Off: Wed Apr  3 20:37:01 2024

Wall Time:     6120.07 seconds

                                                       Time (seconds)
Module                                       User      System        Wall        Calls

--------------------------------------------------------------------------------------

**************************************************************************************

[...]
Wall Time:       81.11 seconds


                                                       Time (seconds)
Module                                       User      System        Wall        Calls
                                                       Time (seconds)

--------------------------------------------------------------------------------------
Module                                       User      System        Wall        Calls


--------------------------------------------------------------------------------------

**************************************************************************************

Host: pocllab-ws

Timers On : Wed Jul 31 11:21:38 2024
Timers Off: Wed Jul 31 11:23:00 2024

Wall Time:       81.32 seconds

                                                       Time (seconds)
Module                                       User      System        Wall        Calls

--------------------------------------------------------------------------------------

**************************************************************************************

Host: pocllab-ws

Timers On : Wed Jul 31 11:21:38 2024
Timers Off: Wed Jul 31 11:23:00 2024

Wall Time:       81.08 seconds

                                                       Time (seconds)
Module                                       User      System        Wall        Calls

--------------------------------------------------------------------------------------

**************************************************************************************

Host: pocllab-ws

Timers On : Wed Jul 31 11:21:38 2024
Timers Off: Wed Jul 31 11:23:00 2024

Wall Time:       81.28 seconds

                                                       Time (seconds)
Module                                       User      System        Wall        Calls

--------------------------------------------------------------------------------------

**************************************************************************************

Host: pocllab-ws

Timers On : Wed Jul 31 11:21:38 2024
Timers Off: Wed Jul 31 11:23:00 2024

Wall Time:       81.08 seconds

                                                       Time (seconds)
Module                                       User      System        Wall        Calls

--------------------------------------------------------------------------------------

**************************************************************************************

Host: pocllab-ws

Timers On : Wed Jul 31 11:21:38 2024
Timers Off: Wed Jul 31 11:23:00 2024

Wall Time:       81.29 seconds

                                                       Time (seconds)
Module                                       User      System        Wall        Calls

--------------------------------------------------------------------------------------

**************************************************************************************

Host: pocllab-ws

Timers On : Wed Jul 31 11:21:38 2024
Timers Off: Wed Jul 31 11:23:00 2024

Wall Time:       81.01 seconds

                                                       Time (seconds)
Module                                       User      System        Wall        Calls

--------------------------------------------------------------------------------------

**************************************************************************************

Host: pocllab-ws

Timers On : Wed Jul 31 11:21:38 2024
Timers Off: Wed Jul 31 11:23:00 2024

Wall Time:       81.32 seconds

                                                       Time (seconds)
Module                                       User      System        Wall        Calls

--------------------------------------------------------------------------------------

**************************************************************************************

Host: pocllab-ws

Timers On : Wed Jul 31 11:21:38 2024
Timers Off: Wed Jul 31 11:23:00 2024

Wall Time:       81.02 seconds

                                                       Time (seconds)
Module                                       User      System        Wall        Calls

--------------------------------------------------------------------------------------

**************************************************************************************

Host: pocllab-ws

Timers On : Wed Jul 31 11:21:38 2024
Timers Off: Wed Jul 31 11:23:00 2024

Host: pocllab-ws
1.01 seconds


Timers On : Wed Jul 31 11:21:38 2024
                 Time (seconds)
Module                                       User      System        Wall        Calls

--------------------------------------------------------------------------------------

Wall Time:       81.01 seconds

****************************************************
                                                       Time (seconds)
Module                                       User      System        Wall        Calls

--------------------------------------------------------------------------------------

**************************************************************************************

Host: pocllab-ws

Timers On : Wed Jul 31 11:42:51 2024
Timers Off: Wed Jul 31 11:44:40 2024

Wall Time:      109.21 seconds

                                                       Time (seconds)
Module                                       User      System        Wall        Calls

--------------------------------------------------------------------------------------

**************************************************************************************

Host: pocllab-ws

Timers On : Wed Jul 31 11:43:18 2024
Timers Off: Wed Jul 31 11:44:40 2024

Wall Time:       82.16 seconds

                                                       Time (seconds)
Module                                       User      System        Wall        Calls

--------------------------------------------------------------------------------------

**************************************************************************************

Host: pocllab-ws

Timers On : Wed Jul 31 11:43:18 2024
Timers Off: Wed Jul 31 11:44:40 2024

Wall Time:       82.16 seconds

                                                       Time (seconds)
Module                                       User      System        Wall        Calls

--------------------------------------------------------------------------------------

**************************************************************************************

Host: pocllab-ws

Timers On : Wed Jul 31 11:43:18 2024
Timers Off: Wed Jul 31 11:44:40 2024

Wall Time:       82.00 seconds

                                                       Time (seconds)
Module                                       User      System        Wall        Calls

--------------------------------------------------------------------------------------

**************************************************************************************

Host: pocllab-ws

Timers On : Wed Jul 31 11:43:18 2024
Timers Off: Wed Jul 31 11:44:40 2024

Wall Time:       82.17 seconds

                                                       Time (seconds)
Module                                       User      System        Wall        Calls

--------------------------------------------------------------------------------------

**************************************************************************************

Host: pocllab-ws

Timers On : Wed Jul 31 11:43:18 2024
Timers Off: Wed Jul 31 11:44:40 2024

Wall Time:       82.17 seconds

                                                       Time (seconds)
Module                                       User      System        Wall        Calls

--------------------------------------------------------------------------------------

**************************************************************************************

Host: pocllab-ws

Timers On : Wed Jul 31 11:43:18 2024
Timers Off: Wed Jul 31 11:44:40 2024

Wall Time:       82.18 seconds

                                                       Time (seconds)
Module                                       User      System        Wall        Calls

--------------------------------------------------------------------------------------

**************************************************************************************

Host: pocllab-ws

Timers On : Wed Jul 31 11:43:18 2024
Timers Off: Wed Jul 31 11:44:40 2024

Wall Time:       82.18 seconds

                                                       Time (seconds)
Module                                       User      System        Wall        Calls

--------------------------------------------------------------------------------------

**************************************************************************************

Host: pocllab-ws

Timers On : Wed Jul 31 11:43:18 2024
Timers Off: Wed Jul 31 11:44:40 2024

Wall Time:       81.87 seconds

                                                       Time (seconds)
Module                                       User      System        Wall        Calls

--------------------------------------------------------------------------------------

**************************************************************************************

Host: pocllab-ws

Timers On : Wed Jul 31 11:43:18 2024
Timers Off: Wed Jul 31 11:44:40 2024

Wall Time:       81.87 seconds

                                                       Time (seconds)
Module                                       User      System        Wall        Calls

--------------------------------------------------------------------------------------

**************************************************************************************

Host: pocllab-ws

Timers On : Wed Jul 31 11:43:18 2024
Timers Off: Wed Jul 31 11:44:40 2024

Wall Time:       81.84 seconds

                                                       Time (seconds)

st: pocllab-ws
Module                                       User      System        Wall        Calls

Timers On : Wed Jul 31 11:43:18 2024
--------------------------------------------------
Host: pocllab-ws
Timers Off: Wed Jul 31 11:44:40 2024
**************************************************
Timers On : Wed Jul 31 11:43:18 2024
Timers Off: Wed Jul 31 11:44:40 2024
                                                       Time (seconds)
Module                                       User      System        Wall        Calls

Wall Time:       81.83 seconds

----------------------------------------------------

**************************************************************************************
                                                       Time (seconds)
Module                                       User      System        Wall        Calls

--------------------------------------------------------------------------------------

**************************************************************************************

Host: pocllab-ws

Timers On : Wed Jul 31 11:43:18 2024
Timers Off: Wed Jul 31 11:44:40 2024

Wall Time:       81.73 seconds

                                                       Time (seconds)
Module                                       User      System        Wall        Calls

--------------------------------------------------------------------------------------

**************************************************************************************

Host: pocllab-ws

Timers On : Wed Jul 31 11:43:18 2024

Host: pocllab-ws
l 31 11:44:40 2024

Wall Time:       82.20 seconds

                                                       Time (seconds)
Timers Off: Wed Jul 31 11:44:40 2024
Module                                       User      System        Wall        Calls

--------------------------------------------------------------------------------------

Host: pocllab-ws
**********************************************************************

Timers On : Wed Jul 31 11:43:18 2024
Timers Off: Wed Jul 31 11:44:40 2024

Wall Time:       81.74 seconds

                                                       Time (seconds)

dule                                       User      System        Wall        Calls

--------------------------------------------------------------------------------------
Host: pocllab-ws

**************************************************************************************
Timers On : Wed Jul 31 11:43:18 2024
Timers Off: Wed Jul 31 11:44:40 2024

Wall Time:       82.21 seconds

                                                       Time (seconds)
Module                                       User      System        Wall        Calls

--------------------------------------------------------------------------------------

**************************************************************************************

Host: pocllab-ws

Timers On : Wed Jul 31 11:43:18 2024
Timers Off: Wed Jul 31 11:44:40 2024

Wall Time:       82.18 seconds

                                                       Time (seconds)
Module                                       User      System        Wall        Calls

--------------------------------------------------------------------------------------

**************************************************************************************

Host: pocllab-ws

Timers On : Wed Jul 31 11:43:18 2024
Timers Off: Wed Jul 31 11:44:40 2024

Wall Time:       82.18 seconds

                                                       Time (seconds)
Module                                       User      System        Wall        Calls

--------------------------------------------------------------------------------------

**************************************************************************************

Host: pocllab-ws

Timers On : Wed Jul 31 11:43:18 2024
Timers Off: Wed Jul 31 11:44:40 2024

Wall Time:       81.73 seconds

                                                       Time (seconds)
Module                                       User      System        Wall        Calls

--------------------------------------------------------------------------------------

**************************************************************************************

Host: pocllab-ws


Host: pocllab-ws
l 31 11:43:18 2024

mers Off: Wed Jul 31 11:44:40 2024
Timers On : Wed Jul 31 11:43:18 2024
                                                       Time (seconds)
Module                                       User      System        Wall        Calls

--------------------------------------------------------------------------------------

**************************************************************************************

Host: pocllab-ws

Timers On : Wed Jul 31 11:48:47 2024
Timers Off: Wed Jul 31 11:50:38 2024

Wall Time:      110.18 seconds

                                                       Time (seconds)
Module                                       User      System        Wall        Calls

--------------------------------------------------------------------------------------

**************************************************************************************

Host: pocllab-ws


mers On : Wed Jul 31 11:49:11 2024
Timers Off: Wed Jul 31 11:50:38 2024

Wall Time:       86.82 seconds

Host: pocllab-ws
                                                       Time (seconds)

Host: pocllab-ws
                           User      System        Wall        Calls

mers On : Wed Jul 31 11:49:11 2024

--------------------------------------------------------------------------------------

**************************************************************************************
Timers Off: Wed Jul 31 11:50:38 2024

Wall Time:       86.88 seconds

                                                       Time (seconds)
Module                                       User      System        Wall        Calls
Module                                       User      System        Wall        Calls

--------------------------------------------------------------------------------------

--------------------------------------------------------------------------------------

**************************************************************************************

**************************************************************************************

Host: pocllab-ws

Timers On : Wed Jul 31 11:49:11 2024
Timers Off: Wed Jul 31 11:50:38 2024

Wall Time:       86.83 seconds

                                                       Time (seconds)
Module                                       User      System        Wall        Calls

--------------------------------------------------------------------------------------

**************************************************************************************

Host: pocllab-ws

Timers On : Wed Jul 31 11:49:11 2024
Timers Off: Wed Jul 31 11:50:38 2024

Wall Time:       86.77 seconds

                                                       Time (seconds)
Module                                       User      System        Wall        Calls

--------------------------------------------------------------------------------------

**************************************************************************************

Host: pocllab-ws

Timers On : Wed Jul 31 11:49:11 2024
Timers Off: Wed Jul 31 11:50:38 2024

Wall Time:       86.63 seconds

                                                       Time (seconds)
Module                                       User      System        Wall        Calls

--------------------------------------------------------------------------------------

**************************************************************************************

Host: pocllab-ws

Timers On : Wed Jul 31 11:49:11 2024
Timers Off: Wed Jul 31 11:50:38 2024

Wall Time:       86.57 seconds

                                                       Time (seconds)
Module                                       User      System        Wall        Calls

--------------------------------------------------------------------------------------
Host: pocllab-ws

**************************************************************************************

Timers On : Wed Jul 31 11:49:11 2024
Timers Off: Wed Jul 31 11:50:38 2024

Wall Time:       86.72 seconds

                                                       Time (seconds)
Module                                       User      System        Wall        Calls

--------------------------------------------------------------------------------------
Host: pocllab-ws
**********************************************************************

Timers On : Wed Jul 31 11:49:11 2024
Timers Off: Wed Jul 31 11:50:38 2024

Wall Time:       86.75 seconds

                                                       Time (seconds)
Module                                       User      System        Wall        Calls

--------------------------------------------------------------------------------------

**************************************************************************************

Host: pocllab-ws

Timers On : Wed Jul 31 11:49:11 2024
Timers Off: Wed Jul 31 11:50:38 2024

Wall Time:       86.57 seconds

                                                       Time (seconds)
Module                                       User      System        Wall        Calls

--------------------------------------------------------------------------------------

**************************************************************************************
