 Entering Gaussian System, Link 0=g16
 Input=/Volumes/SSD-PSM960U3-UW/CoMFA_calc/RYMBAPVTUHZCNF-UHFFFAOYSA-N/opt0.gjf
 Output=/Volumes/SSD-PSM960U3-UW/CoMFA_calc/RYMBAPVTUHZCNF-UHFFFAOYSA-N/opt0.log
 Initial command:
 /Applications/g16/l1.exe "/Users/mac_poclab/PycharmProjects/CoMFA_model/Gau-18111.inp" -scrdir="/Users/mac_poclab/PycharmProjects/CoMFA_model/"
 Entering Link 1 = /Applications/g16/l1.exe PID=     18112.
  
 Copyright (c) 1988,1990,1992,1993,1995,1998,2003,2009,2016,
            Gaussian, Inc.  All Rights Reserved.
  
 This is part of the Gaussian(R) 16 program.  It is based on
 the Gaussian(R) 09 system (copyright 2009, Gaussian, Inc.),
 the Gaussian(R) 03 system (copyright 2003, Gaussian, Inc.),
 the Gaussian(R) 98 system (copyright 1998, Gaussian, Inc.),
 the Gaussian(R) 94 system (copyright 1995, Gaussian, Inc.),
 the Gaussian 92(TM) system (copyright 1992, Gaussian, Inc.),
 the Gaussian 90(TM) system (copyright 1990, Gaussian, Inc.),
 the Gaussian 88(TM) system (copyright 1988, Gaussian, Inc.),
 the Gaussian 86(TM) system (copyright 1986, Carnegie Mellon
 University), and the Gaussian 82(TM) system (copyright 1983,
 Carnegie Mellon University). Gaussian is a federally registered
 trademark of Gaussian, Inc.
  
 This software contains proprietary and confidential information,
 including trade secrets, belonging to Gaussian, Inc.
  
 This software is provided under written license and may be
 used, copied, transmitted, or stored only in accord with that
 written license.
  
 The following legend is applicable only to US Government
 contracts under FAR:
  
                    RESTRICTED RIGHTS LEGEND
  
 Use, reproduction and disclosure by the US Government is
 subject to restrictions as set forth in subparagraphs (a)
 and (c) of the Commercial Computer Software - Restricted
 Rights clause in FAR 52.227-19.
  
 Gaussian, Inc.
 340 Quinnipiac St., Bldg. 40, Wallingford CT 06492
  
  
 ---------------------------------------------------------------
 Warning -- This program may not be used in any manner that
 competes with the business of Gaussian, Inc. or will provide
 assistance to any competitor of Gaussian, Inc.  The licensee
 of this program is prohibited from giving any competitor of
 Gaussian, Inc. access to this program.  By using this program,
 the user acknowledges that Gaussian, Inc. is engaged in the
 business of creating and licensing software in the field of
 computational chemistry and represents and warrants to the
 licensee that it is not a competitor of Gaussian, Inc. and that
 it will not use this program in any manner prohibited above.
 ---------------------------------------------------------------
  

 Cite this work as:
 Gaussian 16, Revision A.03,
 M. J. Frisch, G. W. Trucks, H. B. Schlegel, G. E. Scuseria, 
 M. A. Robb, J. R. Cheeseman, G. Scalmani, V. Barone, 
 G. A. Petersson, H. Nakatsuji, X. Li, M. Caricato, A. V. Marenich, 
 J. Bloino, B. G. Janesko, R. Gomperts, B. Mennucci, H. P. Hratchian, 
 J. V. Ortiz, A. F. Izmaylov, J. L. Sonnenberg, D. Williams-Young, 
 F. Ding, F. Lipparini, F. Egidi, J. Goings, B. Peng, A. Petrone, 
 T. Henderson, D. Ranasinghe, V. G. Zakrzewski, J. Gao, N. Rega, 
 G. Zheng, W. Liang, M. Hada, M. Ehara, K. Toyota, R. Fukuda, 
 J. Hasegawa, M. Ishida, T. Nakajima, Y. Honda, O. Kitao, H. Nakai, 
 T. Vreven, K. Throssell, J. A. Montgomery, Jr., J. E. Peralta, 
 F. Ogliaro, M. J. Bearpark, J. J. Heyd, E. N. Brothers, K. N. Kudin, 
 V. N. Staroverov, T. A. Keith, R. Kobayashi, J. Normand, 
 K. Raghavachari, A. P. Rendell, J. C. Burant, S. S. Iyengar, 
 J. Tomasi, M. Cossi, J. M. Millam, M. Klene, C. Adamo, R. Cammi, 
 J. W. Ochterski, R. L. Martin, K. Morokuma, O. Farkas, 
 J. B. Foresman, and D. J. Fox, Gaussian, Inc., Wallingford CT, 2016.
 
 ******************************************
 Gaussian 16:  EM64M-G16RevA.03 25-Dec-2016
                16-Nov-2024 
 ******************************************
 %nprocshared=30
 Will use up to   30 processors via shared memory.
 %mem=30GB
 %chk= 0.chk
 -------------------------------
 # freq opt=tight b3lyp 6-31g(d)
 -------------------------------
 1/7=10,18=20,19=15,26=3,38=1/1,3;
 2/9=110,12=2,17=6,18=5,40=1/2;
 3/5=1,6=6,7=1,11=2,25=1,30=1,71=1,74=-5/1,2,3;
 4//1;
 5/5=2,38=5/2;
 6/7=2,8=2,9=2,10=2,28=1/1;
 7//1,2,3,16;
 1/7=10,18=20,19=15,26=3/3(2);
 2/9=110/2;
 99//99;
 2/9=110/2;
 3/5=1,6=6,7=1,11=2,25=1,30=1,71=1,74=-5/1,2,3;
 4/5=5,16=3,69=1/1;
 5/5=2,38=5/2;
 7//1,2,3,16;
 1/7=10,18=20,19=15,26=3/3(-5);
 2/9=110/2;
 6/7=2,8=2,9=2,10=2,19=2,28=1/1;
 99/9=1/99;
 ---------
 good luck
 ---------
 Symbolic Z-matrix:
 Charge =  0 Multiplicity = 1
 O                    -0.19663  -2.41071  -0.24288 
 C                    -0.16222  -1.19135  -0.09858 
 C                     1.15264  -0.50877  -0.01387 
 C                     1.36531   0.57372   0.84864 
 C                     2.62115   1.18189   0.90323 
 C                     3.66524   0.70412   0.11065 
 C                     3.46152  -0.38853  -0.7319 
 C                     2.20852  -0.99976  -0.79042 
 C                    -1.43449  -0.44227  -0.01541 
 C                    -2.56377  -1.05775   0.52753 
 C                    -3.76332  -0.35303   0.59189 
 C                    -3.79135   0.94284   0.10075 
 N                    -2.72153   1.56224  -0.44643 
 C                    -1.56921   0.85046  -0.50512 
 H                     0.57467   0.94351   1.49658 
 H                     2.78968   2.02332   1.57136 
 H                     4.6435    1.17697   0.15815 
 H                     4.27968  -0.76887  -1.33868 
 H                     2.05671  -1.85915  -1.44071 
 H                    -2.50981  -2.07964   0.89612 
 H                    -4.65499  -0.80616   1.01113 
 H                    -4.70366   1.5326    0.12962 
 H                    -0.74764   1.37432  -0.98531 
 

 GradGradGradGradGradGradGradGradGradGradGradGradGradGradGradGradGradGrad
 Berny optimization.
 Initialization pass.
                           ----------------------------
                           !    Initial Parameters    !
                           ! (Angstroms and Degrees)  !
 --------------------------                            --------------------------
 ! Name  Definition              Value          Derivative Info.                !
 --------------------------------------------------------------------------------
 ! R1    R(1,2)                  1.2283         estimate D2E/DX2                !
 ! R2    R(2,3)                  1.4839         estimate D2E/DX2                !
 ! R3    R(2,9)                  1.4787         estimate D2E/DX2                !
 ! R4    R(3,4)                  1.4003         estimate D2E/DX2                !
 ! R5    R(3,8)                  1.3996         estimate D2E/DX2                !
 ! R6    R(4,5)                  1.3964         estimate D2E/DX2                !
 ! R7    R(4,15)                 1.0871         estimate D2E/DX2                !
 ! R8    R(5,6)                  1.3952         estimate D2E/DX2                !
 ! R9    R(5,16)                 1.0876         estimate D2E/DX2                !
 ! R10   R(6,7)                  1.3947         estimate D2E/DX2                !
 ! R11   R(6,17)                 1.0876         estimate D2E/DX2                !
 ! R12   R(7,8)                  1.3954         estimate D2E/DX2                !
 ! R13   R(7,18)                 1.0873         estimate D2E/DX2                !
 ! R14   R(8,19)                 1.0883         estimate D2E/DX2                !
 ! R15   R(9,10)                 1.396          estimate D2E/DX2                !
 ! R16   R(9,14)                 1.3889         estimate D2E/DX2                !
 ! R17   R(10,11)                1.3927         estimate D2E/DX2                !
 ! R18   R(10,20)                1.0877         estimate D2E/DX2                !
 ! R19   R(11,12)                1.3861         estimate D2E/DX2                !
 ! R20   R(11,21)                1.0845         estimate D2E/DX2                !
 ! R21   R(12,13)                1.3519         estimate D2E/DX2                !
 ! R22   R(12,22)                1.0867         estimate D2E/DX2                !
 ! R23   R(13,14)                1.3557         estimate D2E/DX2                !
 ! R24   R(14,23)                1.0863         estimate D2E/DX2                !
 ! A1    A(1,2,3)              119.219          estimate D2E/DX2                !
 ! A2    A(1,2,9)              119.0362         estimate D2E/DX2                !
 ! A3    A(3,2,9)              121.7447         estimate D2E/DX2                !
 ! A4    A(2,3,4)              121.6893         estimate D2E/DX2                !
 ! A5    A(2,3,8)              118.387          estimate D2E/DX2                !
 ! A6    A(4,3,8)              119.8901         estimate D2E/DX2                !
 ! A7    A(3,4,5)              119.8228         estimate D2E/DX2                !
 ! A8    A(3,4,15)             121.3077         estimate D2E/DX2                !
 ! A9    A(5,4,15)             118.8589         estimate D2E/DX2                !
 ! A10   A(4,5,6)              120.1103         estimate D2E/DX2                !
 ! A11   A(4,5,16)             120.0213         estimate D2E/DX2                !
 ! A12   A(6,5,16)             119.8657         estimate D2E/DX2                !
 ! A13   A(5,6,7)              120.1419         estimate D2E/DX2                !
 ! A14   A(5,6,17)             119.9622         estimate D2E/DX2                !
 ! A15   A(7,6,17)             119.892          estimate D2E/DX2                !
 ! A16   A(6,7,8)              119.9776         estimate D2E/DX2                !
 ! A17   A(6,7,18)             120.0833         estimate D2E/DX2                !
 ! A18   A(8,7,18)             119.9379         estimate D2E/DX2                !
 ! A19   A(3,8,7)              120.0329         estimate D2E/DX2                !
 ! A20   A(3,8,19)             120.2177         estimate D2E/DX2                !
 ! A21   A(7,8,19)             119.7493         estimate D2E/DX2                !
 ! A22   A(2,9,10)             119.6381         estimate D2E/DX2                !
 ! A23   A(2,9,14)             122.3508         estimate D2E/DX2                !
 ! A24   A(10,9,14)            117.9697         estimate D2E/DX2                !
 ! A25   A(9,10,11)            119.4467         estimate D2E/DX2                !
 ! A26   A(9,10,20)            120.3893         estimate D2E/DX2                !
 ! A27   A(11,10,20)           120.1639         estimate D2E/DX2                !
 ! A28   A(10,11,12)           118.3012         estimate D2E/DX2                !
 ! A29   A(10,11,21)           120.97           estimate D2E/DX2                !
 ! A30   A(12,11,21)           120.7283         estimate D2E/DX2                !
 ! A31   A(11,12,13)           123.7635         estimate D2E/DX2                !
 ! A32   A(11,12,22)           120.993          estimate D2E/DX2                !
 ! A33   A(13,12,22)           115.2425         estimate D2E/DX2                !
 ! A34   A(12,13,14)           116.7184         estimate D2E/DX2                !
 ! A35   A(9,14,13)            123.7691         estimate D2E/DX2                !
 ! A36   A(9,14,23)            122.0969         estimate D2E/DX2                !
 ! A37   A(13,14,23)           114.1294         estimate D2E/DX2                !
 ! D1    D(1,2,3,4)           -142.293          estimate D2E/DX2                !
 ! D2    D(1,2,3,8)             35.5946         estimate D2E/DX2                !
 ! D3    D(9,2,3,4)             37.7768         estimate D2E/DX2                !
 ! D4    D(9,2,3,8)           -144.3356         estimate D2E/DX2                !
 ! D5    D(1,2,9,10)            30.5192         estimate D2E/DX2                !
 ! D6    D(1,2,9,14)          -147.0898         estimate D2E/DX2                !
 ! D7    D(3,2,9,10)          -149.5504         estimate D2E/DX2                !
 ! D8    D(3,2,9,14)            32.8405         estimate D2E/DX2                !
 ! D9    D(2,3,4,5)            179.593          estimate D2E/DX2                !
 ! D10   D(2,3,4,15)             0.7843         estimate D2E/DX2                !
 ! D11   D(8,3,4,5)              1.7366         estimate D2E/DX2                !
 ! D12   D(8,3,4,15)          -177.0721         estimate D2E/DX2                !
 ! D13   D(2,3,8,7)           -179.6565         estimate D2E/DX2                !
 ! D14   D(2,3,8,19)             0.277          estimate D2E/DX2                !
 ! D15   D(4,3,8,7)             -1.7297         estimate D2E/DX2                !
 ! D16   D(4,3,8,19)           178.2038         estimate D2E/DX2                !
 ! D17   D(3,4,5,6)             -0.6435         estimate D2E/DX2                !
 ! D18   D(3,4,5,16)           179.9514         estimate D2E/DX2                !
 ! D19   D(15,4,5,6)           178.1943         estimate D2E/DX2                !
 ! D20   D(15,4,5,16)           -1.2108         estimate D2E/DX2                !
 ! D21   D(4,5,6,7)             -0.4634         estimate D2E/DX2                !
 ! D22   D(4,5,6,17)          -179.7441         estimate D2E/DX2                !
 ! D23   D(16,5,6,7)           178.9426         estimate D2E/DX2                !
 ! D24   D(16,5,6,17)           -0.3381         estimate D2E/DX2                !
 ! D25   D(5,6,7,8)              0.4734         estimate D2E/DX2                !
 ! D26   D(5,6,7,18)          -179.1347         estimate D2E/DX2                !
 ! D27   D(17,6,7,8)           179.7546         estimate D2E/DX2                !
 ! D28   D(17,6,7,18)            0.1465         estimate D2E/DX2                !
 ! D29   D(6,7,8,3)              0.6249         estimate D2E/DX2                !
 ! D30   D(6,7,8,19)          -179.3089         estimate D2E/DX2                !
 ! D31   D(18,7,8,3)          -179.7664         estimate D2E/DX2                !
 ! D32   D(18,7,8,19)            0.2998         estimate D2E/DX2                !
 ! D33   D(2,9,10,11)         -179.3726         estimate D2E/DX2                !
 ! D34   D(2,9,10,20)            0.5174         estimate D2E/DX2                !
 ! D35   D(14,9,10,11)          -1.6595         estimate D2E/DX2                !
 ! D36   D(14,9,10,20)         178.2305         estimate D2E/DX2                !
 ! D37   D(2,9,14,13)          179.8666         estimate D2E/DX2                !
 ! D38   D(2,9,14,23)            0.6948         estimate D2E/DX2                !
 ! D39   D(10,9,14,13)           2.2195         estimate D2E/DX2                !
 ! D40   D(10,9,14,23)        -176.9522         estimate D2E/DX2                !
 ! D41   D(9,10,11,12)           0.4295         estimate D2E/DX2                !
 ! D42   D(9,10,11,21)        -179.8364         estimate D2E/DX2                !
 ! D43   D(20,10,11,12)       -179.4607         estimate D2E/DX2                !
 ! D44   D(20,10,11,21)          0.2734         estimate D2E/DX2                !
 ! D45   D(10,11,12,13)          0.4264         estimate D2E/DX2                !
 ! D46   D(10,11,12,22)       -179.9641         estimate D2E/DX2                !
 ! D47   D(21,11,12,13)       -179.3084         estimate D2E/DX2                !
 ! D48   D(21,11,12,22)          0.3012         estimate D2E/DX2                !
 ! D49   D(11,12,13,14)          0.0234         estimate D2E/DX2                !
 ! D50   D(22,12,13,14)       -179.6065         estimate D2E/DX2                !
 ! D51   D(12,13,14,9)          -1.3903         estimate D2E/DX2                !
 ! D52   D(12,13,14,23)        177.8408         estimate D2E/DX2                !
 --------------------------------------------------------------------------------
 Trust Radius=3.00D-01 FncErr=1.00D-07 GrdErr=1.00D-06 EigMax=2.50D+02 EigMin=1.00D-04
 Number of steps in this run=    123 maximum allowed number of steps=    138.
 GradGradGradGradGradGradGradGradGradGradGradGradGradGradGradGradGradGrad

                          Input orientation:                          
 ---------------------------------------------------------------------
 Center     Atomic      Atomic             Coordinates (Angstroms)
 Number     Number       Type             X           Y           Z
 ---------------------------------------------------------------------
      1          8           0       -0.196626   -2.410706   -0.242875
      2          6           0       -0.162221   -1.191348   -0.098583
      3          6           0        1.152639   -0.508768   -0.013874
      4          6           0        1.365306    0.573720    0.848642
      5          6           0        2.621152    1.181886    0.903226
      6          6           0        3.665235    0.704118    0.110645
      7          6           0        3.461522   -0.388529   -0.731899
      8          6           0        2.208520   -0.999759   -0.790417
      9          6           0       -1.434485   -0.442273   -0.015414
     10          6           0       -2.563773   -1.057749    0.527534
     11          6           0       -3.763317   -0.353032    0.591886
     12          6           0       -3.791349    0.942838    0.100745
     13          7           0       -2.721531    1.562242   -0.446428
     14          6           0       -1.569207    0.850463   -0.505117
     15          1           0        0.574665    0.943509    1.496583
     16          1           0        2.789678    2.023325    1.571357
     17          1           0        4.643495    1.176965    0.158146
     18          1           0        4.279675   -0.768873   -1.338675
     19          1           0        2.056714   -1.859153   -1.440712
     20          1           0       -2.509806   -2.079640    0.896115
     21          1           0       -4.654989   -0.806162    1.011135
     22          1           0       -4.703658    1.532602    0.129621
     23          1           0       -0.747639    1.374323   -0.985311
 ---------------------------------------------------------------------
                    Distance matrix (angstroms):
                    1          2          3          4          5
     1  O    0.000000
     2  C    1.228348   0.000000
     3  C    2.343144   1.483896   0.000000
     4  C    3.540881   2.519135   1.400336   0.000000
     5  C    4.707456   3.792496   2.419900   1.396422   0.000000
     6  C    4.974040   4.276212   2.792801   2.418949   1.395190
     7  C    4.208372   3.765252   2.420942   2.796096   2.417862
     8  C    2.841707   2.477045   1.399634   2.423502   2.792538
     9  C    2.336399   1.478745   2.587979   3.101236   4.464301
    10  C    2.833268   2.485422   3.795553   4.266434   5.660438
    11  C    4.201444   3.761305   4.955585   5.218004   6.573762
    12  C    4.928120   4.214861   5.153961   5.223666   6.466938
    13  N    4.711783   3.775357   4.414225   4.399616   5.523631
    14  C    3.547953   2.512742   3.081765   3.243550   4.433100
    15  H    3.856341   2.764990   2.173624   1.087053   2.144063
    16  H    5.645359   4.672957   3.406516   2.156967   1.087575
    17  H    6.038127   5.363741   3.880382   3.403999   2.155235
    18  H    4.892204   4.631064   3.406040   3.883357   3.403275
    19  H    2.610855   2.677862   2.162581   3.411460   3.880793
    20  H    2.599559   2.699934   4.087692   4.696708   6.079830
    21  H    4.901439   4.643792   5.904882   6.178546   7.543620
    22  H    6.000147   5.300626   6.203547   6.186176   7.373894
    23  H    3.896315   2.776989   2.846187   2.910135   3.866828
                    6          7          8          9         10
     6  C    0.000000
     7  C    1.394725   0.000000
     8  C    2.416015   1.395364   0.000000
     9  C    5.228503   4.948447   3.766020   0.000000
    10  C    6.486795   6.191785   4.951276   1.396028   0.000000
    11  C    7.518813   7.345200   6.163753   2.408368   1.392721
    12  C    7.460411   7.420914   6.369166   2.736208   2.385674
    13  N    6.468190   6.489772   5.566649   2.420814   2.799615
    14  C    5.272567   5.186016   4.216152   1.388930   2.386798
    15  H    3.395549   3.882577   3.417037   2.871099   3.846282
    16  H    2.154202   3.401970   3.880046   5.142039   6.264345
    17  H    1.087581   2.154069   3.401030   6.292368   7.554807
    18  H    2.155868   1.087296   2.154896   5.874463   7.099223
    19  H    3.400648   2.153749   1.088341   4.028336   5.085778
    20  H    6.818900   6.416155   5.125732   2.160595   1.087670
    21  H    8.503996   8.312060   7.098650   3.399686   2.161099
    22  H    8.409823   8.432267   7.418728   3.822127   3.383395
    23  H    4.596058   4.570438   3.796462   2.170824   3.391462
                   11         12         13         14         15
    11  C    0.000000
    12  C    1.386104   0.000000
    13  N    2.414889   1.351877   0.000000
    14  C    2.732386   2.305107   1.355701   0.000000
    15  H    4.617097   4.583715   3.875955   2.934561   0.000000
    16  H    7.039047   6.829353   5.887060   4.968624   2.465335
    17  H    8.555905   8.438288   7.399835   6.256532   4.289673
    18  H    8.281890   8.375160   7.432838   6.125887   4.969712
    19  H    6.346071   6.665365   5.960383   4.622192   4.321931
    20  H    2.155231   3.377919   3.887230   3.381373   4.360499
    21  H    1.084516   2.152600   3.387047   3.816474   5.535909
    22  H    2.157208   1.086721   2.064349   3.270014   5.484187
    23  H    3.816493   3.260348   2.054740   1.086273   2.844976
                   16         17         18         19         20
    16  H    0.000000
    17  H    2.479945   0.000000
    18  H    4.299389   2.481758   0.000000
    19  H    4.968242   4.297185   2.478039   0.000000
    20  H    6.736082   7.894288   7.267011   5.134441   0.000000
    21  H    7.983916   9.545794   9.238572   7.222693   2.497356
    22  H    7.646535   9.353960   9.388980   7.724803   4.295206
    23  H    4.412524   5.514596   5.476499   4.304318   4.309856
                   21         22         23
    21  H    0.000000
    22  H    2.499851   0.000000
    23  H    4.899765   4.113175   0.000000
 Stoichiometry    C12H9NO
 Framework group  C1[X(C12H9NO)]
 Deg. of freedom    63
 Full point group                 C1      NOp   1
 Largest Abelian subgroup         C1      NOp   1
 Largest concise Abelian subgroup C1      NOp   1
                         Standard orientation:                         
 ---------------------------------------------------------------------
 Center     Atomic      Atomic             Coordinates (Angstroms)
 Number     Number       Type             X           Y           Z
 ---------------------------------------------------------------------
      1          8           0        0.024117    2.311539    0.078058
      2          6           0        0.016439    1.083783    0.040717
      3          6           0       -1.282273    0.366407    0.066532
      4          6           0       -1.444577   -0.836240    0.765273
      5          6           0       -2.686721   -1.474242    0.770414
      6          6           0       -3.766971   -0.908479    0.092529
      7          6           0       -3.613072    0.301057   -0.584667
      8          6           0       -2.373966    0.942605   -0.593148
      9          6           0        1.303882    0.359821   -0.030386
     10          6           0        2.440993    0.913846    0.560317
     11          6           0        3.654314    0.234868    0.479607
     12          6           0        3.687453   -0.973193   -0.199197
     13          7           0        2.609681   -1.529122   -0.796625
     14          6           0        1.443622   -0.842923   -0.710830
     15          1           0       -0.624685   -1.279632    1.324616
     16          1           0       -2.816180   -2.408813    1.311372
     17          1           0       -4.734394   -1.405313    0.101591
     18          1           0       -4.459156    0.748174   -1.100848
     19          1           0       -2.260887    1.891913   -1.113259
     20          1           0        2.382349    1.868535    1.078155
     21          1           0        4.552401    0.641244    0.931795
     22          1           0        4.610465   -1.539810   -0.288402
     23          1           0        0.614632   -1.308629   -1.236076
 ---------------------------------------------------------------------
 Rotational constants (GHZ):           1.6952911           0.4140605           0.3583913
 Standard basis: 6-31G(d) (6D, 7F)
 There are   228 symmetry adapted cartesian basis functions of A   symmetry.
 There are   228 symmetry adapted basis functions of A   symmetry.
   228 basis functions,   428 primitive gaussians,   228 cartesian basis functions
    48 alpha electrons       48 beta electrons
       nuclear repulsion energy       778.9665865732 Hartrees.
 NAtoms=   23 NActive=   23 NUniq=   23 SFac= 1.00D+00 NAtFMM=   60 NAOKFM=F Big=F
 Integral buffers will be    131072 words long.
 Raffenetti 2 integral format.
 Two-electron integral symmetry is turned on.
 One-electron integrals computed using PRISM.
 NBasis=   228 RedAO= T EigKep=  4.72D-04  NBF=   228
 NBsUse=   228 1.00D-06 EigRej= -1.00D+00 NBFU=   228
 ExpMin= 1.61D-01 ExpMax= 5.48D+03 ExpMxC= 8.25D+02 IAcc=3 IRadAn=         5 AccDes= 0.00D+00
 Harris functional with IExCor=  402 and IRadAn=       5 diagonalized for initial guess.
 HarFok:  IExCor=  402 AccDes= 0.00D+00 IRadAn=         5 IDoV= 1 UseB2=F ITyADJ=14
 ICtDFT=  3500011 ScaDFX=  1.000000  1.000000  1.000000  1.000000
 FoFCou: FMM=F IPFlag=           0 FMFlag=      100000 FMFlg1=           0
         NFxFlg=           0 DoJE=T BraDBF=F KetDBF=T FulRan=T
         wScrn=  0.000000 ICntrl=       500 IOpCl=  0 I1Cent=   200000004 NGrid=           0
         NMat0=    1 NMatS0=      1 NMatT0=    0 NMatD0=    1 NMtDS0=    0 NMtDT0=    0
 Petite list used in FoFCou.
 Requested convergence on RMS density matrix=1.00D-08 within 128 cycles.
 Requested convergence on MAX density matrix=1.00D-06.
 Requested convergence on             energy=1.00D-06.
 No special actions if energy rises.
 Integral accuracy reduced to 1.0D-05 until final iterations.
 Initial convergence to 1.0D-05 achieved.  Increase integral accuracy.
 SCF Done:  E(RB3LYP) =  -592.664993053     A.U. after   15 cycles
            NFock= 15  Conv=0.51D-08     -V/T= 2.0095

 **********************************************************************

            Population analysis using the SCF density.

 **********************************************************************

 Orbital symmetries:
       Occupied  (A) (A) (A) (A) (A) (A) (A) (A) (A) (A) (A) (A)
                 (A) (A) (A) (A) (A) (A) (A) (A) (A) (A) (A) (A)
                 (A) (A) (A) (A) (A) (A) (A) (A) (A) (A) (A) (A)
                 (A) (A) (A) (A) (A) (A) (A) (A) (A) (A) (A) (A)
       Virtual   (A) (A) (A) (A) (A) (A) (A) (A) (A) (A) (A) (A)
                 (A) (A) (A) (A) (A) (A) (A) (A) (A) (A) (A) (A)
                 (A) (A) (A) (A) (A) (A) (A) (A) (A) (A) (A) (A)
                 (A) (A) (A) (A) (A) (A) (A) (A) (A) (A) (A) (A)
                 (A) (A) (A) (A) (A) (A) (A) (A) (A) (A) (A) (A)
                 (A) (A) (A) (A) (A) (A) (A) (A) (A) (A) (A) (A)
                 (A) (A) (A) (A) (A) (A) (A) (A) (A) (A) (A) (A)
                 (A) (A) (A) (A) (A) (A) (A) (A) (A) (A) (A) (A)
                 (A) (A) (A) (A) (A) (A) (A) (A) (A) (A) (A) (A)
                 (A) (A) (A) (A) (A) (A) (A) (A) (A) (A) (A) (A)
                 (A) (A) (A) (A) (A) (A) (A) (A) (A) (A) (A) (A)
                 (A) (A) (A) (A) (A) (A) (A) (A) (A) (A) (A) (A)
                 (A) (A) (A) (A) (A) (A) (A) (A) (A) (A) (A) (A)
                 (A) (A) (A) (A) (A) (A) (A) (A) (A) (A) (A) (A)
                 (A) (A) (A) (A) (A) (A) (A) (A) (A) (A) (A) (A)
 The electronic state is 1-A.
 Alpha  occ. eigenvalues --  -19.13831 -14.34040 -10.27905 -10.23488 -10.23423
 Alpha  occ. eigenvalues --  -10.21845 -10.21095 -10.20826 -10.20670 -10.20616
 Alpha  occ. eigenvalues --  -10.20432 -10.20257 -10.20232 -10.20111  -1.03828
 Alpha  occ. eigenvalues --   -0.94428  -0.86666  -0.81801  -0.78662  -0.76286
 Alpha  occ. eigenvalues --   -0.75618  -0.66954  -0.64129  -0.62516  -0.61436
 Alpha  occ. eigenvalues --   -0.56742  -0.53868  -0.51594  -0.49422  -0.48097
 Alpha  occ. eigenvalues --   -0.46413  -0.45461  -0.44437  -0.43261  -0.42642
 Alpha  occ. eigenvalues --   -0.40909  -0.40687  -0.39091  -0.37964  -0.36718
 Alpha  occ. eigenvalues --   -0.36055  -0.35288  -0.29250  -0.27661  -0.27290
 Alpha  occ. eigenvalues --   -0.26210  -0.26083  -0.24598
 Alpha virt. eigenvalues --   -0.06907  -0.03292  -0.02067  -0.01004   0.04476
 Alpha virt. eigenvalues --    0.08754   0.10085   0.13386   0.13642   0.14516
 Alpha virt. eigenvalues --    0.15045   0.15514   0.16633   0.17468   0.17792
 Alpha virt. eigenvalues --    0.18343   0.23044   0.24647   0.27194   0.27910
 Alpha virt. eigenvalues --    0.28941   0.29567   0.30059   0.33863   0.34168
 Alpha virt. eigenvalues --    0.36621   0.41372   0.43081   0.45116   0.46678
 Alpha virt. eigenvalues --    0.50788   0.51865   0.52132   0.53589   0.54539
 Alpha virt. eigenvalues --    0.55139   0.56263   0.56869   0.57656   0.58013
 Alpha virt. eigenvalues --    0.58472   0.59281   0.59877   0.60200   0.60352
 Alpha virt. eigenvalues --    0.60775   0.62110   0.63614   0.63777   0.65585
 Alpha virt. eigenvalues --    0.65982   0.66951   0.69363   0.71289   0.73878
 Alpha virt. eigenvalues --    0.75869   0.76931   0.80980   0.81265   0.82279
 Alpha virt. eigenvalues --    0.82755   0.82955   0.84460   0.85118   0.85378
 Alpha virt. eigenvalues --    0.86438   0.87107   0.89135   0.89922   0.91976
 Alpha virt. eigenvalues --    0.93612   0.94579   0.96292   0.98871   0.99912
 Alpha virt. eigenvalues --    1.01676   1.06070   1.06831   1.07691   1.08201
 Alpha virt. eigenvalues --    1.09635   1.12536   1.14239   1.16742   1.18341
 Alpha virt. eigenvalues --    1.19466   1.21630   1.24910   1.25479   1.27186
 Alpha virt. eigenvalues --    1.29289   1.37678   1.40738   1.41318   1.42475
 Alpha virt. eigenvalues --    1.43774   1.45145   1.47119   1.48020   1.48478
 Alpha virt. eigenvalues --    1.49316   1.49955   1.50666   1.51390   1.52612
 Alpha virt. eigenvalues --    1.64199   1.71285   1.74502   1.76099   1.76240
 Alpha virt. eigenvalues --    1.77835   1.80236   1.80958   1.84058   1.85287
 Alpha virt. eigenvalues --    1.87432   1.88802   1.90960   1.93234   1.96005
 Alpha virt. eigenvalues --    1.97794   2.01177   2.03456   2.04830   2.07132
 Alpha virt. eigenvalues --    2.10414   2.13329   2.13759   2.13939   2.14288
 Alpha virt. eigenvalues --    2.15698   2.16278   2.19040   2.23725   2.28608
 Alpha virt. eigenvalues --    2.28997   2.29693   2.30397   2.31616   2.33641
 Alpha virt. eigenvalues --    2.35593   2.39137   2.47243   2.52234   2.53055
 Alpha virt. eigenvalues --    2.56571   2.58414   2.58730   2.61304   2.64201
 Alpha virt. eigenvalues --    2.67644   2.68153   2.71942   2.72851   2.73499
 Alpha virt. eigenvalues --    2.73988   2.76307   2.79997   2.84832   2.88338
 Alpha virt. eigenvalues --    2.96402   2.98034   3.11651   3.17611   3.37696
 Alpha virt. eigenvalues --    3.42093   3.98403   4.04010   4.07896   4.09908
 Alpha virt. eigenvalues --    4.10520   4.12866   4.15015   4.23325   4.30061
 Alpha virt. eigenvalues --    4.32888   4.35482   4.46004   4.62286   4.72830
          Condensed to atoms (all electrons):
               1          2          3          4          5          6
     1  O    8.070368   0.555120  -0.098050   0.001804  -0.000077  -0.000010
     2  C    0.555120   4.736308   0.290891  -0.045126   0.004462   0.000415
     3  C   -0.098050   0.290891   4.971608   0.516393  -0.016584  -0.034582
     4  C    0.001804  -0.045126   0.516393   4.985700   0.520763  -0.037794
     5  C   -0.000077   0.004462  -0.016584   0.520763   4.864105   0.551059
     6  C   -0.000010   0.000415  -0.034582  -0.037794   0.551059   4.846893
     7  C    0.000670   0.005444  -0.020228  -0.042356  -0.026638   0.541272
     8  C    0.003210  -0.024641   0.496519  -0.056592  -0.041893  -0.033641
     9  C   -0.098938   0.254757  -0.109752  -0.005114   0.000135  -0.000004
    10  C    0.003919  -0.033646   0.008822   0.000192   0.000011   0.000000
    11  C    0.000692   0.007091  -0.000092  -0.000021  -0.000000   0.000000
    12  C   -0.000014   0.000344  -0.000008  -0.000002  -0.000000   0.000000
    13  N   -0.000040   0.004697   0.000022  -0.000028  -0.000005  -0.000000
    14  C    0.001775  -0.031832  -0.005302  -0.003081  -0.000078  -0.000007
    15  H    0.000026  -0.008159  -0.043507   0.355393  -0.040853   0.004536
    16  H    0.000001  -0.000141   0.003640  -0.039190   0.358807  -0.042350
    17  H    0.000000   0.000005   0.000539   0.005031  -0.042739   0.360012
    18  H    0.000002  -0.000147   0.003814   0.000791   0.004548  -0.043194
    19  H    0.009331  -0.007077  -0.045166   0.005636   0.000295   0.004498
    20  H    0.010661  -0.007798   0.000648  -0.000027   0.000000   0.000000
    21  H   -0.000000  -0.000062   0.000002  -0.000000   0.000000   0.000000
    22  H   -0.000000   0.000013  -0.000000   0.000000   0.000000  -0.000000
    23  H   -0.000015  -0.003472   0.006148   0.003766   0.000131  -0.000017
               7          8          9         10         11         12
     1  O    0.000670   0.003210  -0.098938   0.003919   0.000692  -0.000014
     2  C    0.005444  -0.024641   0.254757  -0.033646   0.007091   0.000344
     3  C   -0.020228   0.496519  -0.109752   0.008822  -0.000092  -0.000008
     4  C   -0.042356  -0.056592  -0.005114   0.000192  -0.000021  -0.000002
     5  C   -0.026638  -0.041893   0.000135   0.000011  -0.000000  -0.000000
     6  C    0.541272  -0.033641  -0.000004   0.000000   0.000000   0.000000
     7  C    4.889995   0.507802  -0.000111   0.000001  -0.000000   0.000000
     8  C    0.507802   4.959826   0.008071  -0.000236   0.000001   0.000000
     9  C   -0.000111   0.008071   5.105576   0.481863  -0.017465  -0.033685
    10  C    0.000001  -0.000236   0.481863   4.974096   0.498730  -0.031508
    11  C   -0.000000   0.000001  -0.017465   0.498730   4.976094   0.493297
    12  C    0.000000   0.000000  -0.033685  -0.031508   0.493297   4.787872
    13  N   -0.000000   0.000005  -0.008996  -0.052954  -0.023198   0.460950
    14  C   -0.000013   0.000320   0.451500  -0.057492  -0.041131  -0.075546
    15  H    0.000325   0.005455   0.006878  -0.000093  -0.000024  -0.000017
    16  H    0.004523   0.000817   0.000005  -0.000000  -0.000000   0.000000
    17  H   -0.042936   0.004626  -0.000000   0.000000  -0.000000  -0.000000
    18  H    0.359736  -0.039154   0.000002  -0.000000   0.000000   0.000000
    19  H   -0.042769   0.359318   0.000653  -0.000016  -0.000000   0.000000
    20  H   -0.000000  -0.000014  -0.046808   0.363167  -0.045025   0.004488
    21  H    0.000000  -0.000000   0.004826  -0.040362   0.353317  -0.036930
    22  H   -0.000000   0.000000   0.000533   0.003455  -0.062937   0.378258
    23  H   -0.000016  -0.000129  -0.062865   0.004455   0.000174   0.005344
              13         14         15         16         17         18
     1  O   -0.000040   0.001775   0.000026   0.000001   0.000000   0.000002
     2  C    0.004697  -0.031832  -0.008159  -0.000141   0.000005  -0.000147
     3  C    0.000022  -0.005302  -0.043507   0.003640   0.000539   0.003814
     4  C   -0.000028  -0.003081   0.355393  -0.039190   0.005031   0.000791
     5  C   -0.000005  -0.000078  -0.040853   0.358807  -0.042739   0.004548
     6  C   -0.000000  -0.000007   0.004536  -0.042350   0.360012  -0.043194
     7  C   -0.000000  -0.000013   0.000325   0.004523  -0.042936   0.359736
     8  C    0.000005   0.000320   0.005455   0.000817   0.004626  -0.039154
     9  C   -0.008996   0.451500   0.006878   0.000005  -0.000000   0.000002
    10  C   -0.052954  -0.057492  -0.000093  -0.000000   0.000000  -0.000000
    11  C   -0.023198  -0.041131  -0.000024  -0.000000  -0.000000   0.000000
    12  C    0.460950  -0.075546  -0.000017   0.000000  -0.000000   0.000000
    13  N    6.701105   0.434472  -0.000026   0.000000   0.000000   0.000000
    14  C    0.434472   4.940782   0.002785  -0.000005   0.000000  -0.000000
    15  H   -0.000026   0.002785   0.575270  -0.005100  -0.000173   0.000016
    16  H    0.000000  -0.000005  -0.005100   0.585688  -0.005556  -0.000176
    17  H    0.000000   0.000000  -0.000173  -0.005556   0.588271  -0.005506
    18  H    0.000000  -0.000000   0.000016  -0.000176  -0.005506   0.584472
    19  H    0.000000  -0.000024  -0.000135   0.000017  -0.000162  -0.005030
    20  H   -0.000292   0.005786  -0.000008  -0.000000   0.000000  -0.000000
    21  H    0.004596   0.000380  -0.000000  -0.000000   0.000000  -0.000000
    22  H   -0.052735   0.005524  -0.000000   0.000000  -0.000000   0.000000
    23  H   -0.049917   0.374826  -0.000376  -0.000004   0.000000  -0.000000
              19         20         21         22         23
     1  O    0.009331   0.010661  -0.000000  -0.000000  -0.000015
     2  C   -0.007077  -0.007798  -0.000062   0.000013  -0.003472
     3  C   -0.045166   0.000648   0.000002  -0.000000   0.006148
     4  C    0.005636  -0.000027  -0.000000   0.000000   0.003766
     5  C    0.000295   0.000000   0.000000   0.000000   0.000131
     6  C    0.004498   0.000000   0.000000  -0.000000  -0.000017
     7  C   -0.042769  -0.000000   0.000000  -0.000000  -0.000016
     8  C    0.359318  -0.000014  -0.000000   0.000000  -0.000129
     9  C    0.000653  -0.046808   0.004826   0.000533  -0.062865
    10  C   -0.000016   0.363167  -0.040362   0.003455   0.004455
    11  C   -0.000000  -0.045025   0.353317  -0.062937   0.000174
    12  C    0.000000   0.004488  -0.036930   0.378258   0.005344
    13  N    0.000000  -0.000292   0.004596  -0.052735  -0.049917
    14  C   -0.000024   0.005786   0.000380   0.005524   0.374826
    15  H   -0.000135  -0.000008  -0.000000  -0.000000  -0.000376
    16  H    0.000017  -0.000000  -0.000000   0.000000  -0.000004
    17  H   -0.000162   0.000000   0.000000  -0.000000   0.000000
    18  H   -0.005030  -0.000000  -0.000000   0.000000  -0.000000
    19  H    0.561682  -0.000003  -0.000000   0.000000  -0.000006
    20  H   -0.000003   0.549938  -0.005430  -0.000164  -0.000143
    21  H   -0.000000  -0.005430   0.575054  -0.002061   0.000024
    22  H    0.000000  -0.000164  -0.002061   0.579757  -0.000183
    23  H   -0.000006  -0.000143   0.000024  -0.000183   0.560871
 Mulliken charges:
               1
     1  O   -0.460434
     2  C    0.302556
     3  C    0.074226
     4  C   -0.166137
     5  C   -0.135449
     6  C   -0.117087
     7  C   -0.134702
     8  C   -0.149669
     9  C    0.068939
    10  C   -0.122403
    11  C   -0.139502
    12  C    0.047157
    13  N   -0.417656
    14  C   -0.003640
    15  H    0.147787
    16  H    0.139025
    17  H    0.138588
    18  H    0.139826
    19  H    0.158959
    20  H    0.171025
    21  H    0.146646
    22  H    0.150542
    23  H    0.161404
 Sum of Mulliken charges =  -0.00000
 Mulliken charges with hydrogens summed into heavy atoms:
               1
     1  O   -0.460434
     2  C    0.302556
     3  C    0.074226
     4  C   -0.018349
     5  C    0.003576
     6  C    0.021501
     7  C    0.005124
     8  C    0.009290
     9  C    0.068939
    10  C    0.048621
    11  C    0.007144
    12  C    0.197699
    13  N   -0.417656
    14  C    0.157764
 Electronic spatial extent (au):  <R**2>=           3024.0725
 Charge=             -0.0000 electrons
 Dipole moment (field-independent basis, Debye):
    X=             -0.4648    Y=             -1.1508    Z=              0.9788  Tot=              1.5807
 Quadrupole moment (field-independent basis, Debye-Ang):
   XX=            -63.1472   YY=            -86.3722   ZZ=            -79.4724
   XY=              5.4702   XZ=              5.9811   YZ=             -3.6163
 Traceless Quadrupole moment (field-independent basis, Debye-Ang):
   XX=             13.1834   YY=            -10.0416   ZZ=             -3.1418
   XY=              5.4702   XZ=              5.9811   YZ=             -3.6163
 Octapole moment (field-independent basis, Debye-Ang**2):
  XXX=             11.8294  YYY=             -5.6638  ZZZ=              0.7669  XYY=            -11.9453
  XXY=              4.9832  XXZ=              6.4666  XZZ=             -1.2186  YZZ=              6.4605
  YYZ=              7.2219  XYZ=              7.3339
 Hexadecapole moment (field-independent basis, Debye-Ang**3):
 XXXX=          -2743.8562 YYYY=           -743.4420 ZZZZ=           -237.8711 XXXY=             26.4432
 XXXZ=             84.0733 YYYX=             31.3783 YYYZ=            -20.2686 ZZZX=              6.6701
 ZZZY=             -3.4269 XXYY=           -624.7392 XXZZ=           -589.6476 YYZZ=           -147.4750
 XXYZ=            -22.4432 YYXZ=             14.4518 ZZXY=              8.8383
 N-N= 7.789665865732D+02 E-N=-2.934127851978D+03  KE= 5.870963162233D+02
 Calling FoFJK, ICntrl=      2127 FMM=F ISym2X=0 I1Cent= 0 IOpClX= 0 NMat=1 NMatS=1 NMatT=0.
 ***** Axes restored to original set *****
 -------------------------------------------------------------------
 Center     Atomic                   Forces (Hartrees/Bohr)
 Number     Number              X              Y              Z
 -------------------------------------------------------------------
      1        8          -0.001046218   -0.001522914   -0.000724809
      2        6           0.003435935   -0.018547009   -0.001458677
      3        6          -0.002097870    0.005311342   -0.000459365
      4        6           0.004659607    0.006127650    0.000054679
      5        6           0.000040047   -0.000429674    0.002051306
      6        6           0.002018641    0.001739792    0.001037950
      7        6          -0.002097384   -0.002642276   -0.000992690
      8        6           0.007968902   -0.000985748   -0.002051101
      9        6           0.000125148    0.001455389    0.004295122
     10        6          -0.009088441   -0.004438436    0.003094995
     11        6           0.003903065   -0.007977330    0.001198348
     12        6           0.010393147    0.014071719   -0.007917800
     13        7           0.001624645   -0.013673260    0.001209672
     14        6          -0.017741852    0.021426253   -0.000104754
     15        1          -0.001559342   -0.001153495   -0.002536535
     16        1          -0.000511101   -0.000759340   -0.000080297
     17        1          -0.000597477    0.000174799   -0.000173441
     18        1          -0.000638595    0.000274281   -0.000036940
     19        1          -0.002567593    0.001729028    0.002081308
     20        1           0.002929282    0.001275488   -0.001089243
     21        1          -0.000760444   -0.000240227    0.000464240
     22        1          -0.001148525    0.000590767    0.000892034
     23        1           0.002756425   -0.001806798    0.001245998
 -------------------------------------------------------------------
 Cartesian Forces:  Max     0.021426253 RMS     0.005578129

 GradGradGradGradGradGradGradGradGradGradGradGradGradGradGradGradGradGrad
 Berny optimization.
 FormGI is forming the generalized inverse of G from B-inverse, IUseBI=4.
 Internal  Forces:  Max     0.013250673 RMS     0.003060177
 Search for a local minimum.
 Step number   1 out of a maximum of  123
 All quantities printed in internal units (Hartrees-Bohrs-Radians)
 Mixed Optimization -- RFO/linear search
 Second derivative matrix not updated -- first step.
 ITU=  0
     Eigenvalues ---    0.00979   0.01013   0.01047   0.01753   0.01826
     Eigenvalues ---    0.02096   0.02111   0.02122   0.02135   0.02144
     Eigenvalues ---    0.02153   0.02154   0.02156   0.02162   0.02181
     Eigenvalues ---    0.02228   0.02240   0.02248   0.02286   0.02296
     Eigenvalues ---    0.15997   0.15999   0.15999   0.15999   0.16000
     Eigenvalues ---    0.16000   0.16000   0.16000   0.16000   0.21998
     Eigenvalues ---    0.21999   0.22000   0.23178   0.23446   0.23476
     Eigenvalues ---    0.24978   0.24983   0.25000   0.25000   0.34127
     Eigenvalues ---    0.34714   0.35005   0.35083   0.35094   0.35094
     Eigenvalues ---    0.35127   0.35155   0.35194   0.35247   0.35454
     Eigenvalues ---    0.41916   0.41936   0.43245   0.44178   0.45751
     Eigenvalues ---    0.46081   0.46301   0.46449   0.46859   0.47777
     Eigenvalues ---    0.52329   0.53683   0.91778
 RFO step:  Lambda=-5.17632191D-03 EMin= 9.78970113D-03
 Linear search not attempted -- first point.
 Iteration  1 RMS(Cart)=  0.12721121 RMS(Int)=  0.00430517
 Iteration  2 RMS(Cart)=  0.00846265 RMS(Int)=  0.00006200
 Iteration  3 RMS(Cart)=  0.00002874 RMS(Int)=  0.00006039
 Iteration  4 RMS(Cart)=  0.00000000 RMS(Int)=  0.00006039
 Variable       Old X    -DE/DX   Delta X   Delta X   Delta X     New X
                                 (Linear)    (Quad)   (Total)
    R1        2.32124   0.00163   0.00000   0.00176   0.00176   2.32300
    R2        2.80416   0.00835   0.00000   0.02409   0.02409   2.82825
    R3        2.79442   0.01163   0.00000   0.03300   0.03300   2.82742
    R4        2.64625   0.00244   0.00000   0.00530   0.00527   2.65152
    R5        2.64493   0.00221   0.00000   0.00476   0.00475   2.64968
    R6        2.63886  -0.00057   0.00000  -0.00119  -0.00122   2.63764
    R7        2.05423  -0.00077   0.00000  -0.00216  -0.00216   2.05207
    R8        2.63653   0.00086   0.00000   0.00184   0.00185   2.63838
    R9        2.05522  -0.00072   0.00000  -0.00201  -0.00201   2.05321
   R10        2.63565   0.00279   0.00000   0.00593   0.00596   2.64161
   R11        2.05523  -0.00047   0.00000  -0.00132  -0.00132   2.05391
   R12        2.63686  -0.00168   0.00000  -0.00360  -0.00358   2.63328
   R13        2.05469  -0.00056   0.00000  -0.00156  -0.00156   2.05313
   R14        2.05667  -0.00225   0.00000  -0.00634  -0.00634   2.05033
   R15        2.63811   0.00297   0.00000   0.00769   0.00771   2.64582
   R16        2.62470   0.01137   0.00000   0.02384   0.02381   2.64851
   R17        2.63186  -0.00270   0.00000  -0.00461  -0.00456   2.62730
   R18        2.05540  -0.00142   0.00000  -0.00399  -0.00399   2.05140
   R19        2.61936   0.00995   0.00000   0.02023   0.02025   2.63961
   R20        2.04944   0.00091   0.00000   0.00252   0.00252   2.05195
   R21        2.55468  -0.01076   0.00000  -0.02063  -0.02066   2.53402
   R22        2.05361   0.00131   0.00000   0.00366   0.00366   2.05727
   R23        2.56190  -0.01325   0.00000  -0.02532  -0.02536   2.53654
   R24        2.05276   0.00066   0.00000   0.00185   0.00185   2.05461
    A1        2.08076   0.00528   0.00000   0.02071   0.02069   2.10146
    A2        2.07757   0.00296   0.00000   0.01160   0.01159   2.08916
    A3        2.12485  -0.00825   0.00000  -0.03232  -0.03233   2.09251
    A4        2.12388   0.00182   0.00000   0.00708   0.00712   2.13100
    A5        2.06624   0.00038   0.00000   0.00146   0.00151   2.06775
    A6        2.09248  -0.00221   0.00000  -0.00883  -0.00896   2.08352
    A7        2.09130   0.00168   0.00000   0.00746   0.00732   2.09863
    A8        2.11722  -0.00361   0.00000  -0.02053  -0.02047   2.09675
    A9        2.07448   0.00192   0.00000   0.01295   0.01301   2.08749
   A10        2.09632  -0.00035   0.00000  -0.00151  -0.00164   2.09467
   A11        2.09477  -0.00034   0.00000  -0.00230  -0.00230   2.09247
   A12        2.09205   0.00069   0.00000   0.00397   0.00397   2.09602
   A13        2.09687  -0.00055   0.00000  -0.00249  -0.00255   2.09432
   A14        2.09374   0.00007   0.00000   0.00006   0.00006   2.09379
   A15        2.09251   0.00048   0.00000   0.00256   0.00256   2.09507
   A16        2.09400   0.00039   0.00000   0.00157   0.00155   2.09555
   A17        2.09585   0.00001   0.00000   0.00049   0.00050   2.09635
   A18        2.09331  -0.00041   0.00000  -0.00207  -0.00206   2.09125
   A19        2.09497   0.00105   0.00000   0.00447   0.00441   2.09938
   A20        2.09820  -0.00358   0.00000  -0.02072  -0.02069   2.07751
   A21        2.09002   0.00253   0.00000   0.01624   0.01627   2.10629
   A22        2.08808  -0.00099   0.00000  -0.00568  -0.00567   2.08241
   A23        2.13542   0.00278   0.00000   0.00910   0.00909   2.14452
   A24        2.05896  -0.00181   0.00000  -0.00396  -0.00406   2.05490
   A25        2.08474  -0.00345   0.00000  -0.00969  -0.00969   2.07505
   A26        2.10119  -0.00141   0.00000  -0.01417  -0.01417   2.08702
   A27        2.09726   0.00487   0.00000   0.02385   0.02386   2.12111
   A28        2.06474   0.00028   0.00000   0.00357   0.00357   2.06831
   A29        2.11133  -0.00003   0.00000  -0.00113  -0.00113   2.11019
   A30        2.10711  -0.00025   0.00000  -0.00243  -0.00243   2.10468
   A31        2.16008   0.00126   0.00000   0.00282   0.00274   2.16282
   A32        2.11173  -0.00113   0.00000  -0.00441  -0.00438   2.10734
   A33        2.01136  -0.00013   0.00000   0.00164   0.00166   2.01302
   A34        2.03712   0.00166   0.00000   0.00022   0.00002   2.03714
   A35        2.16018   0.00209   0.00000   0.00781   0.00766   2.16783
   A36        2.13099  -0.00437   0.00000  -0.02411  -0.02406   2.10693
   A37        1.99193   0.00228   0.00000   0.01616   0.01620   2.00813
    D1       -2.48348  -0.00201   0.00000  -0.13786  -0.13784  -2.62132
    D2        0.62124  -0.00226   0.00000  -0.14713  -0.14718   0.47406
    D3        0.65933  -0.00186   0.00000  -0.12786  -0.12781   0.53152
    D4       -2.51913  -0.00210   0.00000  -0.13713  -0.13715  -2.65628
    D5        0.53266  -0.00179   0.00000  -0.10928  -0.10931   0.42335
    D6       -2.56720  -0.00140   0.00000  -0.09377  -0.09376  -2.66096
    D7       -2.61015  -0.00194   0.00000  -0.11925  -0.11927  -2.72941
    D8        0.57317  -0.00155   0.00000  -0.10375  -0.10371   0.46947
    D9        3.13449  -0.00115   0.00000  -0.04497  -0.04498   3.08951
   D10        0.01369  -0.00102   0.00000  -0.03881  -0.03884  -0.02515
   D11        0.03031  -0.00096   0.00000  -0.03578  -0.03578  -0.00547
   D12       -3.09049  -0.00083   0.00000  -0.02963  -0.02963  -3.12013
   D13       -3.13560   0.00058   0.00000   0.02417   0.02409  -3.11151
   D14        0.00483   0.00051   0.00000   0.02119   0.02116   0.02600
   D15       -0.03019   0.00043   0.00000   0.01542   0.01535  -0.01483
   D16        3.11024   0.00036   0.00000   0.01244   0.01242   3.12267
   D17       -0.01123   0.00086   0.00000   0.03274   0.03281   0.02158
   D18        3.14074   0.00040   0.00000   0.01515   0.01527  -3.12717
   D19        3.11008   0.00066   0.00000   0.02634   0.02630   3.13638
   D20       -0.02113   0.00020   0.00000   0.00875   0.00876  -0.01237
   D21       -0.00809  -0.00026   0.00000  -0.00941  -0.00935  -0.01744
   D22       -3.13713  -0.00055   0.00000  -0.02085  -0.02082   3.12524
   D23        3.12314   0.00019   0.00000   0.00811   0.00819   3.13133
   D24       -0.00590  -0.00010   0.00000  -0.00333  -0.00328  -0.00918
   D25        0.00826  -0.00029   0.00000  -0.01111  -0.01109  -0.00283
   D26       -3.12649  -0.00025   0.00000  -0.00965  -0.00968  -3.13618
   D27        3.13731   0.00000   0.00000   0.00030   0.00037   3.13768
   D28        0.00256   0.00005   0.00000   0.00176   0.00178   0.00433
   D29        0.01091   0.00023   0.00000   0.00818   0.00811   0.01902
   D30       -3.12953   0.00030   0.00000   0.01117   0.01112  -3.11841
   D31       -3.13752   0.00019   0.00000   0.00674   0.00672  -3.13080
   D32        0.00523   0.00026   0.00000   0.00972   0.00972   0.01496
   D33       -3.13064   0.00057   0.00000   0.02235   0.02218  -3.10846
   D34        0.00903   0.00054   0.00000   0.02133   0.02120   0.03023
   D35       -0.02896   0.00030   0.00000   0.00783   0.00773  -0.02123
   D36        3.11071   0.00028   0.00000   0.00681   0.00676   3.11746
   D37        3.13926  -0.00121   0.00000  -0.04610  -0.04621   3.09305
   D38        0.01213  -0.00090   0.00000  -0.03373  -0.03385  -0.02172
   D39        0.03874  -0.00085   0.00000  -0.03080  -0.03084   0.00790
   D40       -3.08840  -0.00054   0.00000  -0.01842  -0.01848  -3.10688
   D41        0.00750   0.00020   0.00000   0.00613   0.00602   0.01352
   D42       -3.13874   0.00024   0.00000   0.00795   0.00790  -3.13084
   D43       -3.13218   0.00023   0.00000   0.00718   0.00707  -3.12511
   D44        0.00477   0.00027   0.00000   0.00901   0.00894   0.01371
   D45        0.00744   0.00007   0.00000   0.00160   0.00158   0.00903
   D46       -3.14097   0.00026   0.00000   0.00919   0.00919  -3.13177
   D47       -3.12952   0.00003   0.00000  -0.00022  -0.00029  -3.12981
   D48        0.00526   0.00022   0.00000   0.00737   0.00732   0.01258
   D49        0.00041  -0.00064   0.00000  -0.02265  -0.02266  -0.02225
   D50       -3.13473  -0.00082   0.00000  -0.02982  -0.02987   3.11859
   D51       -0.02427   0.00106   0.00000   0.03775   0.03779   0.01352
   D52        3.10391   0.00072   0.00000   0.02596   0.02576   3.12967
         Item               Value     Threshold  Converged?
 Maximum Force            0.013251     0.000015     NO 
 RMS     Force            0.003060     0.000010     NO 
 Maximum Displacement     0.541933     0.000060     NO 
 RMS     Displacement     0.127795     0.000040     NO 
 Predicted change in Energy=-2.977019D-03
 GradGradGradGradGradGradGradGradGradGradGradGradGradGradGradGradGradGrad

                          Input orientation:                          
 ---------------------------------------------------------------------
 Center     Atomic      Atomic             Coordinates (Angstroms)
 Number     Number       Type             X           Y           Z
 ---------------------------------------------------------------------
      1          8           0       -0.205113   -2.436681   -0.297574
      2          6           0       -0.163328   -1.221263   -0.118289
      3          6           0        1.151870   -0.509902   -0.053755
      4          6           0        1.334137    0.652353    0.710905
      5          6           0        2.593015    1.249576    0.793054
      6          6           0        3.671159    0.705653    0.092309
      7          6           0        3.494679   -0.449346   -0.675087
      8          6           0        2.244158   -1.060806   -0.738910
      9          6           0       -1.436776   -0.448357    0.021655
     10          6           0       -2.594213   -1.106747    0.454286
     11          6           0       -3.781758   -0.389240    0.543021
     12          6           0       -3.774406    0.959543    0.179925
     13          7           0       -2.687996    1.609621   -0.261941
     14          6           0       -1.547394    0.904888   -0.325881
     15          1           0        0.501340    1.078163    1.262572
     16          1           0        2.730612    2.141790    1.397642
     17          1           0        4.647598    1.180144    0.144696
     18          1           0        4.333530   -0.877089   -1.217107
     19          1           0        2.100937   -1.969552   -1.314121
     20          1           0       -2.547407   -2.160855    0.709428
     21          1           0       -4.696470   -0.864685    0.884076
     22          1           0       -4.681536    1.558038    0.243959
     23          1           0       -0.686638    1.454754   -0.698532
 ---------------------------------------------------------------------
                    Distance matrix (angstroms):
                    1          2          3          4          5
     1  O    0.000000
     2  C    1.229280   0.000000
     3  C    2.369246   1.496644   0.000000
     4  C    3.595615   2.537794   1.403127   0.000000
     5  C    4.754732   3.812219   2.426880   1.395778   0.000000
     6  C    5.005173   4.296585   2.801022   2.418093   1.396170
     7  C    4.216690   3.779801   2.424557   2.793324   2.419664
     8  C    2.843719   2.491366   1.402150   2.421779   2.794007
     9  C    2.360578   1.496208   2.590475   3.060161   4.440410
    10  C    2.835809   2.500032   3.827201   4.311870   5.707395
    11  C    4.206067   3.771291   4.971055   5.223551   6.586802
    12  C    4.949969   4.229035   5.146074   5.145243   6.403444
    13  N    4.747477   3.795852   4.390933   4.247393   5.397381
    14  C    3.601194   2.545437   3.059691   3.072771   4.302768
    15  H    3.909892   2.763316   2.162836   1.085911   2.150566
    16  H    5.696897   4.688609   3.410345   2.154106   1.086511
    17  H    6.068428   5.383393   3.887898   3.402672   2.155574
    18  H    4.886425   4.641938   3.407517   3.879791   3.404826
    19  H    2.563092   2.667741   2.149378   3.400456   3.878802
    20  H    2.564464   2.692913   4.122226   4.793801   6.169438
    21  H    4.903035   4.656314   5.933673   6.220902   7.590453
    22  H    6.024068   5.316949   6.196260   6.101363   7.301764
    23  H    3.941560   2.787759   2.766898   2.591119   3.608747
                    6          7          8          9         10
     6  C    0.000000
     7  C    1.397879   0.000000
     8  C    2.418188   1.393470   0.000000
     9  C    5.237149   4.980432   3.808257   0.000000
    10  C    6.532282   6.227541   4.983539   1.400110   0.000000
    11  C    7.546384   7.377936   6.197258   2.402969   1.390308
    12  C    7.450409   7.453565   6.414763   2.733450   2.395347
    13  N    6.432846   6.529587   5.628927   2.425130   2.810771
    14  C    5.239072   5.232437   4.290735   1.401532   2.398159
    15  H    3.399417   3.879161   3.408597   2.761599   3.874223
    16  H    2.156621   3.404995   3.880478   5.096010   6.308460
    17  H    1.086884   2.157893   3.402813   6.299742   7.600627
    18  H    2.158327   1.086471   2.151255   5.917328   7.130211
    19  H    3.405931   2.159145   1.084988   4.075995   5.090788
    20  H    6.875192   6.430626   5.125123   2.153876   1.085556
    21  H    8.550443   8.348558   7.130559   3.397456   2.159352
    22  H    8.397445   8.469046   7.469245   3.821454   3.391495
    23  H    4.491880   4.594515   3.862543   2.168688   3.395455
                   11         12         13         14         15
    11  C    0.000000
    12  C    1.396820   0.000000
    13  N    2.416552   1.340946   0.000000
    14  C    2.724361   2.284385   1.342278   0.000000
    15  H    4.584316   4.412278   3.574695   2.598175   0.000000
    16  H    7.038995   6.722783   5.691988   4.775122   2.473702
    17  H    8.583453   8.424967   7.359398   6.218933   4.295521
    18  H    8.318290   8.429920   7.509853   6.209266   4.965632
    19  H    6.368081   6.732862   6.070539   4.748614   4.299607
    20  H    2.165626   3.394523   3.896128   3.386838   4.482417
    21  H    1.085848   2.161906   3.386667   3.809471   5.561937
    22  H    2.165855   1.088660   2.057377   3.251795   5.303777
    23  H    3.810713   3.248266   2.054271   1.087254   2.323584
                   16         17         18         19         20
    16  H    0.000000
    17  H    2.483842   0.000000
    18  H    4.303474   2.487036   0.000000
    19  H    4.965207   4.305138   2.487441   0.000000
    20  H    6.844258   7.952942   7.259951   5.073307   0.000000
    21  H    8.028959   9.593728   9.271247   7.228938   2.515757
    22  H    7.524074   9.337312   9.451771   7.802143   4.312927
    23  H    4.067378   5.407450   5.559541   4.458182   4.303189
                   21         22         23
    21  H    0.000000
    22  H    2.505905   0.000000
    23  H    4.895222   4.105870   0.000000
 Stoichiometry    C12H9NO
 Framework group  C1[X(C12H9NO)]
 Deg. of freedom    63
 Full point group                 C1      NOp   1
 Largest Abelian subgroup         C1      NOp   1
 Largest concise Abelian subgroup C1      NOp   1
                         Standard orientation:                         
 ---------------------------------------------------------------------
 Center     Atomic      Atomic             Coordinates (Angstroms)
 Number     Number       Type             X           Y           Z
 ---------------------------------------------------------------------
      1          8           0        0.024809    2.345504    0.059271
      2          6           0        0.014574    1.116452    0.037944
      3          6           0       -1.282386    0.369579    0.042374
      4          6           0       -1.406007   -0.906391    0.612797
      5          6           0       -2.648036   -1.542088    0.650875
      6          6           0       -3.768446   -0.919696    0.097160
      7          6           0       -3.650598    0.349412   -0.476897
      8          6           0       -2.416309    0.995935   -0.494210
      9          6           0        1.307611    0.365017   -0.007191
     10          6           0        2.471726    0.974257    0.476514
     11          6           0        3.675485    0.283549    0.393800
     12          6           0        3.676292   -0.987510   -0.185435
     13          7           0        2.582513   -1.585166   -0.679996
     14          6           0        1.427059   -0.909866   -0.577013
     15          1           0       -0.539960   -1.394432    1.049809
     16          1           0       -2.739777   -2.524409    1.105997
     17          1           0       -4.732143   -1.422023    0.113678
     18          1           0       -4.522266    0.837623   -0.903820
     19          1           0       -2.317862    1.989909   -0.917912
     20          1           0        2.417248    1.970909    0.903303
     21          1           0        4.596281    0.720909    0.767854
     22          1           0        4.596581   -1.564225   -0.260601
     23          1           0        0.560047   -1.414032   -0.996808
 ---------------------------------------------------------------------
 Rotational constants (GHZ):           1.6922556           0.4188405           0.3532852
 Standard basis: 6-31G(d) (6D, 7F)
 There are   228 symmetry adapted cartesian basis functions of A   symmetry.
 There are   228 symmetry adapted basis functions of A   symmetry.
   228 basis functions,   428 primitive gaussians,   228 cartesian basis functions
    48 alpha electrons       48 beta electrons
       nuclear repulsion energy       778.6478781926 Hartrees.
 NAtoms=   23 NActive=   23 NUniq=   23 SFac= 1.00D+00 NAtFMM=   60 NAOKFM=F Big=F
 Integral buffers will be    131072 words long.
 Raffenetti 2 integral format.
 Two-electron integral symmetry is turned on.
 One-electron integrals computed using PRISM.
 NBasis=   228 RedAO= T EigKep=  4.68D-04  NBF=   228
 NBsUse=   228 1.00D-06 EigRej= -1.00D+00 NBFU=   228
 Initial guess from the checkpoint file:  "0.chk"
 B after Tr=    -0.000000   -0.000000    0.000000
         Rot=    0.999997   -0.001099   -0.002115   -0.000610 Ang=  -0.28 deg.
 ExpMin= 1.61D-01 ExpMax= 5.48D+03 ExpMxC= 8.25D+02 IAcc=2 IRadAn=         4 AccDes= 0.00D+00
 Harris functional with IExCor=  402 and IRadAn=       4 diagonalized for initial guess.
 HarFok:  IExCor=  402 AccDes= 0.00D+00 IRadAn=         4 IDoV= 1 UseB2=F ITyADJ=14
 ICtDFT=  3500011 ScaDFX=  1.000000  1.000000  1.000000  1.000000
 FoFCou: FMM=F IPFlag=           0 FMFlag=      100000 FMFlg1=           0
         NFxFlg=           0 DoJE=T BraDBF=F KetDBF=T FulRan=T
         wScrn=  0.000000 ICntrl=       500 IOpCl=  0 I1Cent=   200000004 NGrid=           0
         NMat0=    1 NMatS0=      1 NMatT0=    0 NMatD0=    1 NMtDS0=    0 NMtDT0=    0
 Petite list used in FoFCou.
 Requested convergence on RMS density matrix=1.00D-08 within 128 cycles.
 Requested convergence on MAX density matrix=1.00D-06.
 Requested convergence on             energy=1.00D-06.
 No special actions if energy rises.
 Integral accuracy reduced to 1.0D-05 until final iterations.
 Initial convergence to 1.0D-05 achieved.  Increase integral accuracy.
 SCF Done:  E(RB3LYP) =  -592.667369289     A.U. after   13 cycles
            NFock= 13  Conv=0.75D-08     -V/T= 2.0096
 Calling FoFJK, ICntrl=      2127 FMM=F ISym2X=0 I1Cent= 0 IOpClX= 0 NMat=1 NMatS=1 NMatT=0.
 ***** Axes restored to original set *****
 -------------------------------------------------------------------
 Center     Atomic                   Forces (Hartrees/Bohr)
 Number     Number              X              Y              Z
 -------------------------------------------------------------------
      1        8          -0.000218151    0.004435122    0.000651980
      2        6           0.001399543   -0.005951249   -0.001786915
      3        6          -0.002160046    0.000883694    0.000082215
      4        6           0.002813666    0.001045804    0.001626298
      5        6          -0.000326468   -0.000016706   -0.000761804
      6        6          -0.000119482    0.000282746    0.000121255
      7        6          -0.001202776   -0.000863049   -0.000059080
      8        6           0.003079474   -0.000234869    0.000522497
      9        6           0.001456582    0.000936660    0.001285255
     10        6          -0.002588081    0.000081376   -0.000395625
     11        6           0.000702956   -0.001522295    0.000302231
     12        6           0.000997817    0.003385331   -0.000972549
     13        7           0.001123657   -0.004948805    0.001718455
     14        6          -0.004645595    0.005103205   -0.002225229
     15        1           0.001228019   -0.000721552    0.000420519
     16        1          -0.000155278   -0.000117932    0.000107549
     17        1          -0.000021440   -0.000167841    0.000107987
     18        1           0.000032603    0.000138958   -0.000126429
     19        1          -0.000891741   -0.000182681    0.000142235
     20        1           0.000960603   -0.000018577   -0.000293098
     21        1          -0.000298287    0.000523116    0.000015320
     22        1          -0.000783063   -0.000900613    0.000072988
     23        1          -0.000384508   -0.001169844   -0.000556055
 -------------------------------------------------------------------
 Cartesian Forces:  Max     0.005951249 RMS     0.001734268

 GradGradGradGradGradGradGradGradGradGradGradGradGradGradGradGradGradGrad
 Berny optimization.
 Using GEDIIS/GDIIS optimizer.
 FormGI is forming the generalized inverse of G from B-inverse, IUseBI=4.
 Internal  Forces:  Max     0.008436595 RMS     0.001701947
 Search for a local minimum.
 Step number   2 out of a maximum of  123
 All quantities printed in internal units (Hartrees-Bohrs-Radians)
 Mixed Optimization -- RFO/linear search
 Update second derivatives using D2CorX and points    1    2
 DE= -2.38D-03 DEPred=-2.98D-03 R= 7.98D-01
 TightC=F SS=  1.41D+00  RLast= 3.88D-01 DXNew= 5.0454D-01 1.1636D+00
 Trust test= 7.98D-01 RLast= 3.88D-01 DXMaxT set to 5.05D-01
 ITU=  1  0
 Use linear search instead of GDIIS.
     Eigenvalues ---    0.01005   0.01015   0.01455   0.01741   0.01802
     Eigenvalues ---    0.02105   0.02122   0.02126   0.02143   0.02151
     Eigenvalues ---    0.02153   0.02154   0.02159   0.02169   0.02198
     Eigenvalues ---    0.02228   0.02238   0.02280   0.02285   0.02545
     Eigenvalues ---    0.14126   0.15997   0.15998   0.15999   0.16000
     Eigenvalues ---    0.16000   0.16000   0.16000   0.16080   0.21808
     Eigenvalues ---    0.21998   0.22002   0.22448   0.23265   0.23454
     Eigenvalues ---    0.23986   0.24967   0.24998   0.29659   0.33079
     Eigenvalues ---    0.34332   0.35035   0.35089   0.35093   0.35095
     Eigenvalues ---    0.35127   0.35177   0.35200   0.35368   0.35470
     Eigenvalues ---    0.41785   0.41916   0.42723   0.43912   0.45610
     Eigenvalues ---    0.45780   0.46231   0.46402   0.46862   0.47019
     Eigenvalues ---    0.50843   0.53681   0.92434
 RFO step:  Lambda=-1.50538820D-03 EMin= 1.00526500D-02
 Quartic linear search produced a step of -0.12859.
 Iteration  1 RMS(Cart)=  0.07632119 RMS(Int)=  0.00116178
 Iteration  2 RMS(Cart)=  0.00185455 RMS(Int)=  0.00017252
 Iteration  3 RMS(Cart)=  0.00000193 RMS(Int)=  0.00017252
 Iteration  4 RMS(Cart)=  0.00000000 RMS(Int)=  0.00017252
 Variable       Old X    -DE/DX   Delta X   Delta X   Delta X     New X
                                 (Linear)    (Quad)   (Total)
    R1        2.32300  -0.00447  -0.00023  -0.00341  -0.00364   2.31936
    R2        2.82825   0.00212  -0.00310   0.01671   0.01361   2.84186
    R3        2.82742   0.00360  -0.00424   0.02451   0.02027   2.84769
    R4        2.65152   0.00166  -0.00068   0.00582   0.00518   2.65671
    R5        2.64968   0.00107  -0.00061   0.00437   0.00379   2.65347
    R6        2.63764  -0.00058   0.00016  -0.00158  -0.00142   2.63622
    R7        2.05207  -0.00101   0.00028  -0.00351  -0.00323   2.04884
    R8        2.63838  -0.00034  -0.00024   0.00014  -0.00014   2.63824
    R9        2.05321  -0.00006   0.00026  -0.00108  -0.00083   2.05238
   R10        2.64161  -0.00008  -0.00077   0.00247   0.00166   2.64327
   R11        2.05391  -0.00009   0.00017  -0.00083  -0.00067   2.05325
   R12        2.63328  -0.00139   0.00046  -0.00435  -0.00390   2.62938
   R13        2.05313   0.00003   0.00020  -0.00065  -0.00045   2.05268
   R14        2.05033   0.00020   0.00081  -0.00250  -0.00168   2.04865
   R15        2.64582   0.00139  -0.00099   0.00647   0.00551   2.65134
   R16        2.64851   0.00213  -0.00306   0.01524   0.01223   2.66074
   R17        2.62730  -0.00073   0.00059  -0.00343  -0.00286   2.62444
   R18        2.05140  -0.00001   0.00051  -0.00190  -0.00139   2.05002
   R19        2.63961   0.00006  -0.00260   0.00942   0.00676   2.64637
   R20        2.05195   0.00003  -0.00032   0.00125   0.00093   2.05288
   R21        2.53402  -0.00172   0.00266  -0.01264  -0.01002   2.52400
   R22        2.05727   0.00016  -0.00047   0.00212   0.00165   2.05892
   R23        2.53654  -0.00250   0.00326  -0.01598  -0.01270   2.52384
   R24        2.05461  -0.00071  -0.00024  -0.00086  -0.00110   2.05351
    A1        2.10146  -0.00377  -0.00266  -0.00325  -0.00595   2.09551
    A2        2.08916  -0.00466  -0.00149  -0.01062  -0.01214   2.07702
    A3        2.09251   0.00844   0.00416   0.01401   0.01814   2.11065
    A4        2.13100   0.00584  -0.00092   0.02286   0.02152   2.15252
    A5        2.06775  -0.00432  -0.00019  -0.01500  -0.01552   2.05223
    A6        2.08352  -0.00156   0.00115  -0.00975  -0.00879   2.07474
    A7        2.09863   0.00028  -0.00094   0.00495   0.00408   2.10270
    A8        2.09675   0.00023   0.00263  -0.00858  -0.00601   2.09075
    A9        2.08749  -0.00051  -0.00167   0.00333   0.00158   2.08907
   A10        2.09467   0.00031   0.00021   0.00031   0.00054   2.09521
   A11        2.09247  -0.00034   0.00030  -0.00264  -0.00235   2.09012
   A12        2.09602   0.00003  -0.00051   0.00235   0.00183   2.09785
   A13        2.09432  -0.00004   0.00033  -0.00202  -0.00174   2.09258
   A14        2.09379   0.00006  -0.00001   0.00066   0.00067   2.09446
   A15        2.09507  -0.00003  -0.00033   0.00136   0.00105   2.09612
   A16        2.09555  -0.00001  -0.00020   0.00011  -0.00010   2.09545
   A17        2.09635  -0.00008  -0.00006   0.00011   0.00006   2.09641
   A18        2.09125   0.00008   0.00026  -0.00023   0.00004   2.09130
   A19        2.09938   0.00102  -0.00057   0.00608   0.00556   2.10494
   A20        2.07751  -0.00143   0.00266  -0.01677  -0.01414   2.06336
   A21        2.10629   0.00041  -0.00209   0.01071   0.00858   2.11488
   A22        2.08241  -0.00458   0.00073  -0.01970  -0.01934   2.06307
   A23        2.14452   0.00631  -0.00117   0.02504   0.02336   2.16788
   A24        2.05490  -0.00178   0.00052  -0.00789  -0.00758   2.04732
   A25        2.07505   0.00120   0.00125   0.00098   0.00227   2.07732
   A26        2.08702  -0.00163   0.00182  -0.01504  -0.01325   2.07377
   A27        2.12111   0.00043  -0.00307   0.01408   0.01098   2.13209
   A28        2.06831  -0.00035  -0.00046   0.00021  -0.00028   2.06804
   A29        2.11019   0.00079   0.00015   0.00350   0.00366   2.11385
   A30        2.10468  -0.00044   0.00031  -0.00371  -0.00339   2.10129
   A31        2.16282  -0.00089  -0.00035  -0.00298  -0.00339   2.15942
   A32        2.10734  -0.00072   0.00056  -0.00624  -0.00566   2.10168
   A33        2.01302   0.00161  -0.00021   0.00922   0.00902   2.02204
   A34        2.03714   0.00245  -0.00000   0.00778   0.00781   2.04495
   A35        2.16783  -0.00065  -0.00098   0.00135   0.00043   2.16827
   A36        2.10693  -0.00039   0.00309  -0.01425  -0.01125   2.09569
   A37        2.00813   0.00103  -0.00208   0.01249   0.01030   2.01844
    D1       -2.62132   0.00159   0.01773   0.02581   0.04364  -2.57768
    D2        0.47406   0.00060   0.01893  -0.02256  -0.00372   0.47035
    D3        0.53152   0.00133   0.01644   0.01213   0.02864   0.56016
    D4       -2.65628   0.00034   0.01764  -0.03624  -0.01872  -2.67500
    D5        0.42335   0.00054   0.01406  -0.00589   0.00810   0.43144
    D6       -2.66096   0.00164   0.01206   0.04812   0.06028  -2.60067
    D7       -2.72941   0.00081   0.01534   0.00774   0.02298  -2.70644
    D8        0.46947   0.00190   0.01334   0.06176   0.07517   0.54463
    D9        3.08951  -0.00038   0.00578  -0.03793  -0.03256   3.05695
   D10       -0.02515  -0.00009   0.00499  -0.02488  -0.02024  -0.04538
   D11       -0.00547   0.00069   0.00460   0.01098   0.01553   0.01006
   D12       -3.12013   0.00098   0.00381   0.02403   0.02786  -3.09227
   D13       -3.11151   0.00014  -0.00310   0.02636   0.02272  -3.08879
   D14        0.02600   0.00037  -0.00272   0.03322   0.03001   0.05600
   D15       -0.01483  -0.00062  -0.00197  -0.01977  -0.02162  -0.03646
   D16        3.12267  -0.00039  -0.00160  -0.01291  -0.01433   3.10833
   D17        0.02158  -0.00035  -0.00422   0.00326  -0.00106   0.02052
   D18       -3.12717  -0.00002  -0.00196   0.00615   0.00417  -3.12300
   D19        3.13638  -0.00063  -0.00338  -0.00990  -0.01349   3.12289
   D20       -0.01237  -0.00030  -0.00113  -0.00701  -0.00826  -0.02063
   D21       -0.01744  -0.00008   0.00120  -0.00889  -0.00765  -0.02509
   D22        3.12524   0.00019   0.00268  -0.00399  -0.00126   3.12397
   D23        3.13133  -0.00040  -0.00105  -0.01176  -0.01289   3.11844
   D24       -0.00918  -0.00014   0.00042  -0.00687  -0.00650  -0.01568
   D25       -0.00283   0.00015   0.00143   0.00020   0.00168  -0.00115
   D26       -3.13618   0.00011   0.00125   0.00069   0.00191  -3.13427
   D27        3.13768  -0.00011  -0.00005  -0.00470  -0.00471   3.13297
   D28        0.00433  -0.00015  -0.00023  -0.00421  -0.00449  -0.00015
   D29        0.01902   0.00021  -0.00104   0.01428   0.01319   0.03221
   D30       -3.11841  -0.00002  -0.00143   0.00737   0.00574  -3.11268
   D31       -3.13080   0.00024  -0.00086   0.01380   0.01297  -3.11783
   D32        0.01496   0.00002  -0.00125   0.00688   0.00552   0.02047
   D33       -3.10846   0.00021  -0.00285   0.02896   0.02547  -3.08299
   D34        0.03023   0.00035  -0.00273   0.03336   0.03006   0.06030
   D35       -0.02123  -0.00056  -0.00099  -0.02117  -0.02203  -0.04326
   D36        3.11746  -0.00042  -0.00087  -0.01678  -0.01743   3.10003
   D37        3.09305  -0.00051   0.00594  -0.04199  -0.03655   3.05650
   D38       -0.02172  -0.00011   0.00435  -0.02257  -0.01863  -0.04036
   D39        0.00790   0.00066   0.00397   0.01161   0.01558   0.02348
   D40       -3.10688   0.00106   0.00238   0.03103   0.03350  -3.07338
   D41        0.01352   0.00019  -0.00077   0.01288   0.01202   0.02554
   D42       -3.13084   0.00015  -0.00102   0.01100   0.01002  -3.12082
   D43       -3.12511   0.00005  -0.00091   0.00844   0.00731  -3.11781
   D44        0.01371   0.00001  -0.00115   0.00657   0.00530   0.01902
   D45        0.00903   0.00015  -0.00020   0.00674   0.00661   0.01563
   D46       -3.13177  -0.00021  -0.00118  -0.00336  -0.00445  -3.13622
   D47       -3.12981   0.00019   0.00004   0.00860   0.00859  -3.12122
   D48        0.01258  -0.00017  -0.00094  -0.00150  -0.00247   0.01011
   D49       -0.02225  -0.00011   0.00291  -0.01667  -0.01375  -0.03600
   D50        3.11859   0.00023   0.00384  -0.00707  -0.00316   3.11543
   D51        0.01352  -0.00032  -0.00486   0.00718   0.00225   0.01577
   D52        3.12967  -0.00072  -0.00331  -0.01161  -0.01525   3.11442
         Item               Value     Threshold  Converged?
 Maximum Force            0.008437     0.000015     NO 
 RMS     Force            0.001702     0.000010     NO 
 Maximum Displacement     0.222195     0.000060     NO 
 RMS     Displacement     0.076549     0.000040     NO 
 Predicted change in Energy=-8.460348D-04
 GradGradGradGradGradGradGradGradGradGradGradGradGradGradGradGradGradGrad

                          Input orientation:                          
 ---------------------------------------------------------------------
 Center     Atomic      Atomic             Coordinates (Angstroms)
 Number     Number       Type             X           Y           Z
 ---------------------------------------------------------------------
      1          8           0       -0.208702   -2.372414   -0.307026
      2          6           0       -0.164362   -1.158827   -0.129152
      3          6           0        1.163052   -0.455267   -0.061856
      4          6           0        1.396199    0.679873    0.734116
      5          6           0        2.676322    1.225934    0.830073
      6          6           0        3.732965    0.660548    0.113882
      7          6           0        3.512332   -0.472318   -0.676344
      8          6           0        2.242129   -1.035817   -0.747571
      9          6           0       -1.454411   -0.395165    0.023955
     10          6           0       -2.585565   -1.088875    0.479741
     11          6           0       -3.799594   -0.419219    0.560033
     12          6           0       -3.852485    0.919220    0.151500
     13          7           0       -2.802403    1.589680   -0.329907
     14          6           0       -1.635654    0.941629   -0.379289
     15          1           0        0.583349    1.112755    1.306287
     16          1           0        2.846637    2.092627    1.462049
     17          1           0        4.726318    1.096332    0.176291
     18          1           0        4.333339   -0.919165   -1.229676
     19          1           0        2.056544   -1.929114   -1.333103
     20          1           0       -2.481792   -2.131828    0.759596
     21          1           0       -4.692578   -0.917814    0.926245
     22          1           0       -4.787421    1.476020    0.205829
     23          1           0       -0.804219    1.501203   -0.799343
 ---------------------------------------------------------------------
                    Distance matrix (angstroms):
                    1          2          3          4          5
     1  O    0.000000
     2  C    1.227355   0.000000
     3  C    2.370079   1.503846   0.000000
     4  C    3.602241   2.561523   1.405870   0.000000
     5  C    4.750207   3.831016   2.431452   1.395029   0.000000
     6  C    4.991269   4.307940   2.807202   2.417755   1.396097
     7  C    4.194384   3.780051   2.428374   2.791945   2.419146
     8  C    2.826154   2.487724   1.404155   2.419625   2.791594
     9  C    2.360266   1.506934   2.619559   3.128261   4.510071
    10  C    2.813530   2.497573   3.840172   4.364358   5.759212
    11  C    4.178668   3.773183   5.001590   5.313621   6.687072
    12  C    4.931760   4.242558   5.204839   5.286342   6.571138
    13  N    4.735610   3.814952   4.469731   4.425851   5.611978
[...]
 29,-0.00001576,-0.00030557,-0.00039551,0.00022984,0.00007054,0.0000792
 0,-0.00057274,-0.00035999,-0.00018029,0.03283226,-0.28421867,0.0568576
 8,-0.06916082,-0.02478833,0.02637564,0.02524566,-0.05231016,0.00625168
 ,0.02003544,0.05588094,-0.02076727,0.08417044,-0.17164608,0.01324105,0
 .01006538,0.62914481,0.00373664,-0.00293661,0.00103848,-0.00379764,-0.
 00465552,0.00046162,0.00070917,-0.00037597,-0.00081713,-0.00166048,-0.
 00003005,-0.00158122,0.00030667,0.00042455,0.00002539,0.00001815,0.000
 12134,0.00021513,-0.00011138,-0.00013594,0.00003460,0.00031039,0.00013
 120,-0.00002528,0.00225204,0.07400366,-0.09002574,0.00998800,0.0164182
 2,0.00051076,-0.00435019,0.00263438,-0.00930943,0.01765453,-0.00834185
 ,0.00124398,0.02718301,0.00486671,-0.07602216,-0.13805556,-0.14988429,
 0.24167060,0.00028358,0.00061531,0.00009841,-0.00034217,-0.00026533,-0
 .00074734,0.00767172,-0.00147980,-0.00246701,-0.22107769,0.08499732,0.
 11213889,-0.01734094,0.01367708,0.01537611,-0.00344942,-0.00422927,-0.
 00032838,-0.00006587,-0.00072269,-0.00058814,0.00103768,-0.00187668,-0
 .00012140,-0.00072999,-0.00078887,-0.00040273,0.00033898,0.00006741,0.
 00012609,-0.00015657,0.00013585,-0.00007931,-0.00017954,-0.00009210,0.
 00020500,-0.00000792,-0.00019262,-0.00027426,-0.00153328,0.00061849,-0
 .00169249,0.23606741,-0.00067858,-0.00054607,-0.00031675,0.00285678,-0
 .00023803,0.00181557,0.02024396,-0.00727696,-0.01185366,0.08507267,-0.
 10059923,-0.06937833,-0.01113066,0.00945911,0.00721661,-0.00334329,0.0
 0159162,-0.00338477,-0.00057484,-0.00042186,0.00006267,-0.00295210,-0.
 00191329,-0.00515487,0.00011791,0.00030517,0.00001389,-0.00070568,-0.0
 0013261,0.00019071,0.00024013,-0.00041486,0.00006911,0.00024400,0.0003
 4560,-0.00023386,-0.00036054,0.00001219,0.00013305,0.00021726,0.000320
 22,0.00027459,-0.09128005,0.10013538,-0.00016305,0.00052774,0.00061665
 ,0.00053977,0.00201025,-0.00244322,0.01437333,-0.00541586,-0.00542729,
 0.11159973,-0.06984905,-0.11716023,-0.00292708,0.00095197,0.00478144,0
 .00004336,-0.00307427,0.00513971,-0.00062509,-0.00008083,-0.00037252,-
 0.00066183,-0.00535304,0.00266836,-0.00063855,-0.00023759,0.00025835,-
 0.00031267,0.00017589,0.00024258,0.00019895,-0.00019086,-0.00005915,0.
 00005332,0.00031946,-0.00014711,-0.00006194,0.00010263,0.00008899,-0.0
 0087393,-0.00057392,0.00019241,-0.12041034,0.07799575,0.11548950,-0.00
 069350,-0.00067620,0.00000736,0.00120059,-0.00067586,-0.00084993,-0.00
 507845,-0.00207703,0.00140056,-0.00000516,-0.02498017,-0.01769736,-0.0
 6456788,-0.03476439,-0.01771486,0.00797890,0.02167964,0.01431570,-0.00
 361461,0.00074780,0.00313310,-0.00114941,0.00025093,0.00029651,-0.0001
 1181,-0.00002890,0.00007934,-0.00000414,0.00006628,-0.00000257,-0.0000
 1367,0.00002618,-0.00000154,-0.00002478,-0.00001131,0.00000292,-0.0000
 2445,0.00006783,0.00000865,-0.00004418,-0.00011004,0.00004016,0.000910
 17,0.00084860,-0.00057542,0.06404568,-0.00028222,-0.00043984,0.0001204
 6,0.00097220,0.00018860,-0.00060153,-0.00343862,0.00277647,-0.00246579
 ,0.00030605,-0.00679253,-0.00659111,-0.03505327,-0.23975357,-0.1387799
 2,-0.00348490,-0.00716005,-0.00608045,0.00180258,0.00276249,-0.0035635
 9,0.00005948,0.00028939,0.00046665,-0.00010726,-0.00001241,0.00004959,
 0.00002017,0.00006376,-0.00001022,-0.00001882,0.00003058,0.00000257,-0
 .00000268,-0.00001534,-0.00000099,-0.00006035,0.00004496,0.00002007,-0
 .00000062,-0.00005963,0.00000589,0.00040982,-0.00072467,0.00222321,0.0
 3827826,0.25025359,-0.00031416,-0.00008446,-0.00024022,0.00052131,-0.0
 0012687,0.00049433,0.00065213,-0.00236797,0.00525439,0.00030789,-0.000
 75653,0.00153689,-0.01733909,-0.13893662,-0.13190529,-0.00417216,-0.01
 197425,-0.00517674,0.00379561,-0.00335043,0.00363534,0.00058612,0.0005
 9874,-0.00007913,-0.00007476,-0.00001114,-0.00002851,0.00001661,0.0000
 3813,-0.00001124,-0.00001368,0.00002998,-0.00000326,-0.00001626,-0.000
 02026,0.00001568,0.00001880,0.00003608,-0.00001261,-0.00007828,-0.0000
 6945,0.00000493,-0.00091537,0.00217983,-0.00213864,0.01812681,0.152926
 24,0.13168041,-0.00010040,-0.00012140,0.00003517,0.00018448,0.00023617
 ,-0.00021497,0.00038331,0.00060954,0.00020576,-0.00163191,0.00228108,0
 .00395457,-0.01742740,-0.01198546,-0.00332521,-0.29079902,-0.10669848,
 -0.01180865,0.00001910,0.00005737,0.00085435,0.00185129,-0.00106123,0.
 00054606,-0.00010705,-0.00003347,0.00000873,0.00006576,0.00005137,-0.0
 0002222,-0.00003785,0.00005341,-0.00000428,-0.00000659,-0.00005053,0.0
 0002365,-0.00001210,0.00001126,-0.00001950,-0.00000833,-0.00002441,-0.
 00003637,-0.00094661,-0.00062545,-0.00021037,0.00077956,0.00074126,-0.
 00066736,0.30728910,-0.00027038,0.00004970,-0.00000769,0.00023819,-0.0
 0052109,0.00056160,0.00068133,-0.00059457,-0.00017063,0.00155080,0.001
 53869,-0.00457136,0.01330846,0.00942121,0.00103859,-0.10673183,-0.1004
 9844,-0.01765668,-0.02525012,-0.00587400,-0.00019378,-0.00031377,-0.00
 187379,-0.00620427,0.00003572,0.00001918,-0.00004484,-0.00004828,-0.00
 000072,-0.00000088,0.00002194,-0.00002008,0.00001183,0.00002267,0.0000
 3030,-0.00001804,-0.00006665,0.00002122,0.00002053,0.00002970,0.000003
 36,0.00000909,0.00074155,0.00035033,0.00004652,0.00015939,-0.00067869,
 0.00223045,0.11623593,0.09937584,0.00002686,0.00015513,0.00022062,-0.0
 0015650,0.00052328,-0.00084901,0.00028225,-0.00046285,-0.00094323,0.00
 327222,-0.00465290,0.00328253,0.01454670,0.00729073,0.00486371,-0.0118
 8338,-0.01771055,-0.04734010,-0.01688557,-0.00652762,0.00293037,0.0011
 7140,-0.00588287,0.00281333,-0.00013632,-0.00002780,0.00007080,0.00002
 380,0.00004034,0.00001982,-0.00001957,0.00002267,-0.00001215,-0.000018
 81,-0.00002144,0.00000983,0.00003369,0.00001440,-0.00000962,-0.0000361
 3,-0.00008371,0.00001719,0.00073020,0.00034596,0.00010247,-0.00107156,
 0.00213827,-0.00208175,0.01144500,0.02280740,0.03896842,0.00000317,-0.
 00048082,-0.00013694,-0.00010764,0.00168193,0.00089446,-0.00335581,-0.
 00456275,-0.00010022,-0.00003181,-0.00077802,-0.00058100,0.00124009,-0
 .00181488,0.00013681,0.00746375,-0.00329190,-0.00351712,-0.22469714,0.
 08744180,0.10772727,-0.01814978,0.01393802,0.01481699,-0.00035270,-0.0
 0032749,-0.00012197,-0.00005675,0.00015286,-0.00003705,-0.00003085,0.0
 0001391,0.00003528,0.00001051,-0.00001488,0.00000031,-0.00006947,0.000
 06750,0.00001641,-0.00001360,-0.00009256,0.00001981,-0.00004115,0.0002
 6781,-0.00013013,0.00028918,-0.00026177,-0.00018972,0.00061975,0.00082
 897,-0.00048581,0.23640743,0.00004516,-0.00007196,-0.00003807,-0.00053
 051,0.00062538,0.00020300,-0.00340659,0.00168580,-0.00313343,-0.000799
 11,-0.00074275,-0.00006373,-0.00282946,-0.00171037,-0.00533829,0.02225
 286,-0.00679944,-0.01201764,0.08727336,-0.10211948,-0.06738274,-0.0111
 5879,0.00933598,0.00740732,-0.00020409,-0.00012664,0.00005036,-0.00004
 494,0.00003985,-0.00002279,-0.00001059,-0.00001329,0.00001177,-0.00000
 583,-0.00000597,-0.00000210,0.00001032,0.00001114,-0.00001189,-0.00001
 170,-0.00005420,0.00005052,0.00022848,-0.00032744,0.00059924,0.0011370
 2,-0.00034400,-0.00078245,0.00024562,-0.00043272,0.00226931,-0.0931859
 7,0.10166494,0.00023383,0.00012316,-0.00000692,-0.00033285,-0.00010644
 ,0.00036635,0.00052378,-0.00328834,0.00523750,-0.00056926,0.00000527,-
 0.00011060,-0.00055655,-0.00546113,0.00323997,0.01421756,-0.00574252,-
 0.00503637,0.10762219,-0.06725233,-0.11014654,-0.00293933,0.00112469,0
 .00413283,0.00009990,0.00001168,-0.00017833,-0.00002069,-0.00002537,0.
 00002136,0.00002259,-0.00001189,0.00001149,0.00000091,0.00002827,-0.00
 000830,0.00000323,-0.00000087,0.00003520,-0.00000180,0.00005631,-0.000
 03444,-0.00012940,0.00066017,-0.00080362,0.00076863,-0.00038926,-0.000
 16252,-0.00089677,0.00210631,-0.00202391,-0.11732947,0.07601993,0.1079
 7986,-0.00045377,-0.00151262,-0.00095810,0.00031211,0.00339761,0.00035
 916,0.00788427,0.02041013,0.01292772,-0.00406214,0.00090567,0.00303471
 ,-0.00103743,0.00013598,0.00022241,-0.00465299,-0.00237912,0.00156158,
 0.00060281,-0.02467731,-0.01578463,-0.06528974,-0.03768888,-0.02073449
 ,0.00031970,-0.00046383,0.00014479,-0.00002044,-0.00006009,-0.00002660
 ,-0.00002194,-0.00005947,0.00001170,-0.00000341,-0.00001840,0.00001708
 ,0.00009572,-0.00013577,-0.00000751,0.00020391,0.00021180,-0.00006163,
 0.00032861,0.00110398,0.00099144,0.00009724,0.00011284,-0.00025074,-0.
 00010962,-0.00116348,-0.00087989,0.00089497,0.00097846,-0.00067618,0.0
 6494961,-0.00204011,0.00120457,0.00084614,-0.00093711,-0.00372362,0.00
 130667,-0.00037939,-0.00764909,-0.00751594,0.00169508,0.00190961,-0.00
 286404,0.00005710,0.00039621,0.00050694,-0.00274927,0.00274030,-0.0023
 6874,0.00006269,-0.00530474,-0.00590788,-0.03723830,-0.25243853,-0.135
 60781,0.00021417,0.00006617,-0.00007026,0.00000744,-0.00008594,-0.0000
 1435,0.00001814,0.00002504,0.00000141,-0.00001291,-0.00000043,-0.00000
 644,0.00002164,-0.00003885,0.00003384,0.00006364,0.00006201,-0.0000288
 4,-0.00035096,-0.00019023,-0.00048377,0.00008931,-0.00040686,0.0004790
 2,0.00011149,-0.00031290,-0.00025679,0.00043031,-0.00062529,0.00214319
 ,0.04094641,0.26436753,-0.00057560,0.00164797,0.00067617,-0.00151743,0
 .00012949,-0.00254992,-0.00360809,-0.01331969,-0.00430706,0.00376837,-
 0.00279989,0.00310575,0.00010360,0.00040885,-0.00018066,0.00111983,-0.
 00287189,0.00548168,0.00084136,-0.00030324,0.00333521,-0.01863656,-0.1
 3485259,-0.12480926,-0.00010752,0.00013817,0.00022209,-0.00004220,0.00
 009709,0.00009131,0.00000146,-0.00000564,-0.00004158,0.00001107,0.0000
 2617,-0.00000754,-0.00006837,0.00008443,-0.00003882,-0.00011265,-0.000
 15000,0.00007479,-0.00009668,-0.00088600,0.00005486,-0.00022817,0.0005
 3740,-0.00077935,0.00008625,0.00004510,-0.00002198,-0.00100014,0.00218
 681,-0.00247857,0.02001584,0.14983478,0.12221087,0.00002017,0.00190325
 ,-0.00049757,0.00035061,-0.00351044,-0.00106782,0.00033177,0.00032647,
 0.00027051,0.00017897,-0.00011414,-0.00008179,0.00004630,0.00004682,-0
 .00000388,0.00003087,0.00002214,0.00001527,-0.00001701,0.00005506,0.00
 004031,-0.00002655,0.00007569,0.00000108,0.00665199,-0.02463235,0.0063
 5647,-0.06118457,0.02272182,-0.00323705,0.00348759,0.02751358,-0.00669
 866,-0.00460810,0.00247344,0.00283313,-0.00067004,-0.00018134,-0.00078
 381,-0.00449249,-0.00157527,0.00332355,0.00000213,0.00001169,0.0000585
 6,0.00002671,0.00001940,0.00001366,0.00000910,0.00000940,0.00000558,0.
 00001823,-0.00000195,-0.00000635,-0.00006866,-0.00000911,0.00004700,0.
 05875788,0.00203249,0.00161521,-0.00026687,0.00115565,-0.00289841,-0.0
 0162537,-0.00018152,0.00008782,0.00002872,-0.00004680,0.00003554,0.000
 00405,0.00000440,-0.00000372,-0.00001104,0.00000290,0.00000065,0.00000
 072,-0.00001054,0.00002025,0.00001733,-0.00000257,-0.00004984,-0.00002
 998,0.00005609,-0.01161276,0.00432977,0.02166045,-0.32599159,0.0700088
 0,-0.00068528,-0.00817027,0.00360938,0.00301786,0.00142240,0.00104435,
 -0.00010783,0.00023831,-0.00097103,-0.00269197,0.00090182,0.00218733,0
 .00001258,-0.00001377,0.00002746,-0.00000392,-0.00000564,0.00000068,-0
 .00000219,-0.00000012,0.00000071,-0.00000849,-0.00000521,0.00000293,0.
 00000328,0.00001915,0.00000432,-0.02413975,0.34491617,0.00001195,-0.00
 121212,0.00002565,-0.00116323,-0.00035503,-0.00312101,-0.00023076,-0.0
 0015921,0.00021773,-0.00011100,0.00012151,0.00008633,-0.00005788,-0.00
 003601,-0.00003629,-0.00000352,-0.00002971,-0.00001482,-0.00000217,0.0
 0002878,-0.00004079,-0.00003840,-0.00015803,0.00004032,-0.00231305,0.0
 1102417,0.00298070,-0.00145533,0.06905076,-0.05987453,0.00074923,-0.00
 259102,0.00600743,0.00251357,0.00174021,0.00820062,-0.00088384,-0.0010
 1333,-0.00344437,0.00377517,0.00199273,0.00626679,0.00001522,-0.000029
 59,-0.00003490,-0.00001941,-0.00001489,-0.00000914,-0.00000259,-0.0000
 1019,0.00000019,-0.00001695,-0.00000269,0.00000151,0.00005080,0.000000
 42,-0.00001241,0.00059484,-0.07742008,0.04713814,0.00002501,0.00043323
 ,0.00003128,-0.00005425,-0.00175463,0.00027254,-0.00029065,0.00035625,
 0.00000348,-0.00001711,0.00004806,0.00002030,-0.00003002,-0.00000479,0
 .00002308,-0.00000934,-0.00000847,-0.00000793,-0.00001753,-0.00000621,
 0.00003103,-0.00007663,-0.00012602,-0.00007845,-0.00237168,0.00464510,
 0.00161176,-0.01802417,-0.01460357,0.00893734,-0.25109499,-0.10588650,
 0.08169362,0.00470698,0.00254763,-0.00177942,0.00204525,0.00087176,0.0
 0117940,0.00006099,0.00103071,-0.00031875,0.00000243,0.00001871,0.0000
 0375,-0.00001163,-0.00001617,-0.00000341,-0.00001165,-0.00000299,-0.00
 000329,-0.00002677,-0.00000418,0.00000407,0.00001754,0.00001102,-0.000
 01237,0.00086184,-0.00016405,-0.00121056,0.26414591,-0.00012838,-0.000
 07375,0.00004230,0.00070768,0.00083165,-0.00013514,0.00020668,-0.00017
 951,-0.00004675,0.00000759,-0.00001901,-0.00005294,-0.00000595,0.00001
 234,0.00000549,0.00000412,-0.00000377,0.00000018,0.00001086,-0.0000045
 3,-0.00001994,0.00005348,0.00003489,0.00003677,0.00355616,-0.00047602,
 0.00139125,0.01457220,0.01217929,-0.00622917,-0.10564125,-0.11901917,0
 .04880941,-0.02860725,-0.00640225,0.00878630,0.00055398,-0.00585171,0.
 00384734,0.00211768,-0.00128689,-0.00023055,-0.00000911,0.00000369,0.0
 0002144,0.00000377,-0.00000017,0.00000249,-0.00000136,-0.00000014,0.00
 000086,0.00000654,0.00000477,-0.00000184,0.00000028,-0.00000576,0.0000
 0231,-0.00090171,0.00055555,-0.00110055,0.11353011,0.11922820,0.000164
 26,-0.00011266,-0.00007603,-0.00014785,0.00020915,0.00047175,0.0001602
 5,0.00003542,-0.00016271,0.00001941,-0.00006029,-0.00008106,-0.0000243
 0,-0.00001897,0.00002541,0.00000721,-0.00001987,-0.00001150,0.00002349
 ,-0.00000035,0.00001161,-0.00000419,0.00002655,0.00003212,0.00183706,0
 .00168498,0.00756230,0.00049318,0.00091376,0.00203614,0.08162921,0.048
 40344,-0.06946023,0.00680732,0.00166253,-0.00188579,0.00129276,0.00335
 071,0.00681147,-0.00048236,0.00000334,0.00006097,-0.00005764,0.0000177
 5,-0.00001994,0.00000036,0.00000049,0.00000198,0.00000131,0.00000416,-
 0.00000431,0.00000589,0.00000399,-0.00000510,-0.00000579,-0.00000347,-
 0.00000020,-0.00104776,-0.00108190,-0.00364195,-0.08947491,-0.05369236
 ,0.06242763,-0.00009091,0.00021407,0.00016076,0.00035395,-0.00022153,-
 0.00063351,-0.00012264,0.00000580,0.00004242,-0.00002982,0.00005715,-0
 .00002387,0.00000687,0.00004161,0.00000919,-0.00001458,0.00001000,0.00
 001429,-0.00002541,-0.00002386,-0.00001362,0.00003522,-0.00006279,-0.0
 0003153,-0.00025700,-0.00007081,-0.00013684,0.00155600,0.00012833,0.00
 137500,0.00331065,-0.00095625,0.00116693,-0.24539113,0.12780120,0.0149
 6316,-0.03104564,0.00525996,0.00534838,-0.00102415,-0.00155717,0.00349
 774,0.00001721,0.00000977,0.00005564,-0.00000590,-0.00001190,-0.000003
 66,-0.00001215,-0.00000379,0.00000212,-0.00001482,0.00000210,0.0000023
 1,0.00001181,0.00000402,-0.00000282,-0.00001504,-0.00021054,-0.0001021
 3,0.00025617,0.00032997,-0.00085258,0.27317110,0.00024459,0.00014190,0
 .00004406,-0.00011896,-0.00029790,-0.00058684,0.00001255,-0.00001249,0
 .00005123,-0.00000392,0.00000514,-0.00000350,0.00002245,0.00000462,-0.
 00000923,-0.00000243,0.00001159,0.00001159,-0.00001129,-0.00000204,-0.
 00000739,0.00002742,0.00000551,0.00000635,-0.00109698,-0.00010516,0.00
 002000,-0.00071718,-0.00525775,0.00362116,0.02690321,-0.00975958,-0.00
 190484,0.12874742,-0.14226582,-0.00398624,-0.01927894,0.01340285,0.000
 01030,-0.00356117,0.00081465,0.00373907,-0.00000099,-0.00000565,-0.000
 00522,0.00000182,0.00000268,0.00000096,0.00000286,0.00000116,0.0000004
 6,0.00000366,0.00000046,-0.00000297,-0.00000736,-0.00000123,0.00000657
 ,0.00132136,-0.00048937,-0.00030739,-0.00066330,0.00046417,-0.00076255
 ,-0.13129579,0.14297945,0.00029111,-0.00020033,0.00036118,-0.00036768,
 -0.00072404,-0.00192267,-0.00014432,0.00001914,0.00018439,0.00001055,0
 .00006819,0.00006809,0.00001096,-0.00001194,-0.00000960,-0.00000649,0.
 00001409,0.00000920,-0.00002116,-0.00000682,-0.00001947,0.00002117,-0.
 00005977,0.00000470,-0.00007651,0.00063744,-0.00075828,0.00187254,0.00
 318185,0.00586220,-0.00679979,0.00534947,0.00716258,0.01439230,-0.0041
 6522,-0.04490658,0.01275354,-0.00571982,-0.00520681,0.00373271,0.00276
 255,0.00878639,0.00003378,-0.00002044,-0.00003664,-0.00000179,-0.00000
 225,0.00000012,0.00000284,-0.00000180,-0.00000082,-0.00000430,0.000000
 37,-0.00000456,0.00000605,-0.00000139,0.00000130,-0.00062435,0.0000478
 7,-0.00053969,-0.00055981,-0.00102994,-0.00240797,-0.02496634,-0.00008
 519,0.03293664,0.00019600,-0.00041521,-0.00011783,-0.00044415,0.000218
 03,-0.00044803,-0.00051534,0.00091977,-0.00014688,-0.00134796,0.000086
 13,-0.00161854,-0.00008034,0.00015555,-0.00018993,-0.00009686,0.000067
 10,0.00019207,-0.00020170,-0.00009735,-0.00010489,0.00034719,-0.000145
 40,0.00008142,0.00662563,0.00166129,-0.00087829,0.00075973,0.00166410,
 0.00093750,-0.00022106,0.00006718,-0.00013949,-0.00183553,0.00300545,0
 .00221968,-0.03230869,-0.00770904,0.00989080,-0.20865931,-0.11404377,0
 .08104462,-0.00078880,0.00039793,-0.00032744,0.00002152,0.00001651,-0.
 00000031,0.00000921,-0.00001277,0.00003703,0.00000121,0.00002034,-0.00
 004036,0.00000184,-0.00001533,0.00001383,0.00030829,0.00030977,-0.0000
 9994,-0.00008572,-0.00036608,-0.00034432,-0.00066978,-0.00052903,0.000
 44500,0.23898459,0.00067469,-0.00054293,-0.00024103,-0.00284882,0.0008
 5767,-0.00018958,0.00021186,-0.00001220,-0.00015906,0.00004650,0.00021
 779,-0.00023573,0.00035159,0.00023433,-0.00006848,-0.00015784,0.000202
 20,0.00027199,-0.00025221,-0.00027077,-0.00009888,0.00059529,-0.000008
 68,-0.00023177,-0.02269275,-0.01131540,0.01115922,0.00265442,-0.004991
 04,0.00292174,0.00084594,-0.00011125,-0.00028915,0.00484417,0.00106823
 ,0.00186999,0.01702901,0.01301534,-0.00969878,-0.11457968,-0.14224608,
 0.06175306,-0.00021540,0.00028138,0.00026285,-0.00002900,-0.00001910,-
 0.00004214,-0.00003337,-0.00000371,0.00001702,-0.00001378,0.00001043,0
 .00000104,-0.00004013,-0.00000710,0.00003947,-0.00143406,-0.00057216,0
 .00048125,-0.00025172,0.00000814,-0.00056386,0.00055045,0.00036284,-0.
 00005201,0.11474485,0.14384209,-0.00018905,-0.00087076,0.00011661,-0.0
 0058021,-0.00018300,-0.00213923,-0.00064583,0.00054657,0.00042414,-0.0
 0048104,0.00029844,0.00011254,-0.00005311,-0.00019292,-0.00003360,-0.0
 0004185,0.00001229,0.00001359,-0.00003133,-0.00007065,-0.00012066,0.00
 011819,-0.00024356,0.00003135,0.00830055,0.00311618,0.00270336,0.00041
 550,0.00315840,0.00558044,-0.00028942,-0.00011931,-0.00039756,0.001346
 36,0.00249132,0.00937243,0.00223272,-0.00376437,-0.00286741,0.08039510
 ,0.06263317,-0.08278863,-0.00041319,0.00028262,-0.00099205,-0.00001745
 ,0.00000916,0.00000435,0.00004459,-0.00000142,-0.00001240,-0.00000243,
 -0.00000679,-0.00002627,0.00004229,-0.00002267,-0.00002667,0.00048908,
 0.00009185,-0.00019551,-0.00036275,-0.00040698,-0.00168458,0.00012898,
 0.00014961,0.00043631,-0.09040569,-0.06690717,0.07248947\\0.00000010,0
 .00000041,0.00000054,0.00000071,0.00000089,-0.00000113,0.00000172,-0.0
 0000042,0.00000003,-0.00000013,-0.00000009,0.00000102,0.00000103,-0.00
 000017,-0.00000070,-0.00000023,0.00000144,0.00000166,-0.00000054,-0.00
 000108,0.00000023,-0.00000009,0.00000031,0.00000038,-0.00000330,0.0000
 0116,-0.00000049,-0.00000123,-0.00000031,0.00000076,0.00000112,-0.0000
 0260,-0.00000095,0.00000328,0.00000554,0.00000010,-0.00000549,-0.00000
 044,-0.00000056,0.00000582,-0.00000333,0.00000018,-0.00000028,0.000000
 22,-0.00000065,-0.00000079,0.00000004,0.00000032,0.00000011,-0.0000005
 0,0.00000021,0.00000013,-0.00000011,0.00000049,0.00000023,-0.00000017,
 0.00000041,-0.00000047,0.00000030,0.00000011,-0.00000040,-0.00000017,-
 0.00000063,-0.00000089,-0.00000071,-0.00000141,-0.00000041,-0.00000020
 ,0.00000010\\\@


 It is also a good rule not to put too much confidence in
 experimental results until they have been confirmed by
 Theory.
                             -- Sir Arthur Eddington
 Job cpu time:       0 days  0 hours  0 minutes 56.0 seconds.
 Elapsed time:       0 days  0 hours  1 minutes  8.8 seconds.
 File lengths (MBytes):  RWF=    144 Int=      0 D2E=      0 Chk=      7 Scr=      1
 Normal termination of Gaussian 16 at Sat Nov 16 07:13:06 2024.
