 Entering Gaussian System, Link 0=g16
 Input=/Volumes/SSD-PSM960U3-UW/CoMFA_calc/RYMBAPVTUHZCNF-UHFFFAOYSA-N/opt1.gjf
 Output=/Volumes/SSD-PSM960U3-UW/CoMFA_calc/RYMBAPVTUHZCNF-UHFFFAOYSA-N/opt1.log
 Initial command:
 /Applications/g16/l1.exe "/Users/mac_poclab/PycharmProjects/CoMFA_model/Gau-18446.inp" -scrdir="/Users/mac_poclab/PycharmProjects/CoMFA_model/"
 Entering Link 1 = /Applications/g16/l1.exe PID=     18447.
  
 Copyright (c) 1988,1990,1992,1993,1995,1998,2003,2009,2016,
            Gaussian, Inc.  All Rights Reserved.
  
 This is part of the Gaussian(R) 16 program.  It is based on
 the Gaussian(R) 09 system (copyright 2009, Gaussian, Inc.),
 the Gaussian(R) 03 system (copyright 2003, Gaussian, Inc.),
 the Gaussian(R) 98 system (copyright 1998, Gaussian, Inc.),
 the Gaussian(R) 94 system (copyright 1995, Gaussian, Inc.),
 the Gaussian 92(TM) system (copyright 1992, Gaussian, Inc.),
 the Gaussian 90(TM) system (copyright 1990, Gaussian, Inc.),
 the Gaussian 88(TM) system (copyright 1988, Gaussian, Inc.),
 the Gaussian 86(TM) system (copyright 1986, Carnegie Mellon
 University), and the Gaussian 82(TM) system (copyright 1983,
 Carnegie Mellon University). Gaussian is a federally registered
 trademark of Gaussian, Inc.
  
 This software contains proprietary and confidential information,
 including trade secrets, belonging to Gaussian, Inc.
  
 This software is provided under written license and may be
 used, copied, transmitted, or stored only in accord with that
 written license.
  
 The following legend is applicable only to US Government
 contracts under FAR:
  
                    RESTRICTED RIGHTS LEGEND
  
 Use, reproduction and disclosure by the US Government is
 subject to restrictions as set forth in subparagraphs (a)
 and (c) of the Commercial Computer Software - Restricted
 Rights clause in FAR 52.227-19.
  
 Gaussian, Inc.
 340 Quinnipiac St., Bldg. 40, Wallingford CT 06492
  
  
 ---------------------------------------------------------------
 Warning -- This program may not be used in any manner that
 competes with the business of Gaussian, Inc. or will provide
 assistance to any competitor of Gaussian, Inc.  The licensee
 of this program is prohibited from giving any competitor of
 Gaussian, Inc. access to this program.  By using this program,
 the user acknowledges that Gaussian, Inc. is engaged in the
 business of creating and licensing software in the field of
 computational chemistry and represents and warrants to the
 licensee that it is not a competitor of Gaussian, Inc. and that
 it will not use this program in any manner prohibited above.
 ---------------------------------------------------------------
  

 Cite this work as:
 Gaussian 16, Revision A.03,
 M. J. Frisch, G. W. Trucks, H. B. Schlegel, G. E. Scuseria, 
 M. A. Robb, J. R. Cheeseman, G. Scalmani, V. Barone, 
 G. A. Petersson, H. Nakatsuji, X. Li, M. Caricato, A. V. Marenich, 
 J. Bloino, B. G. Janesko, R. Gomperts, B. Mennucci, H. P. Hratchian, 
 J. V. Ortiz, A. F. Izmaylov, J. L. Sonnenberg, D. Williams-Young, 
 F. Ding, F. Lipparini, F. Egidi, J. Goings, B. Peng, A. Petrone, 
 T. Henderson, D. Ranasinghe, V. G. Zakrzewski, J. Gao, N. Rega, 
 G. Zheng, W. Liang, M. Hada, M. Ehara, K. Toyota, R. Fukuda, 
 J. Hasegawa, M. Ishida, T. Nakajima, Y. Honda, O. Kitao, H. Nakai, 
 T. Vreven, K. Throssell, J. A. Montgomery, Jr., J. E. Peralta, 
 F. Ogliaro, M. J. Bearpark, J. J. Heyd, E. N. Brothers, K. N. Kudin, 
 V. N. Staroverov, T. A. Keith, R. Kobayashi, J. Normand, 
 K. Raghavachari, A. P. Rendell, J. C. Burant, S. S. Iyengar, 
 J. Tomasi, M. Cossi, J. M. Millam, M. Klene, C. Adamo, R. Cammi, 
 J. W. Ochterski, R. L. Martin, K. Morokuma, O. Farkas, 
 J. B. Foresman, and D. J. Fox, Gaussian, Inc., Wallingford CT, 2016.
 
 ******************************************
 Gaussian 16:  EM64M-G16RevA.03 25-Dec-2016
                16-Nov-2024 
 ******************************************
 %nprocshared=30
 Will use up to   30 processors via shared memory.
 %mem=30GB
 %chk= 1.chk
 -------------------------------
 # freq opt=tight b3lyp 6-31g(d)
 -------------------------------
 1/7=10,18=20,19=15,26=3,38=1/1,3;
 2/9=110,12=2,17=6,18=5,40=1/2;
 3/5=1,6=6,7=1,11=2,25=1,30=1,71=1,74=-5/1,2,3;
 4//1;
 5/5=2,38=5/2;
 6/7=2,8=2,9=2,10=2,28=1/1;
 7//1,2,3,16;
 1/7=10,18=20,19=15,26=3/3(2);
 2/9=110/2;
 99//99;
 2/9=110/2;
 3/5=1,6=6,7=1,11=2,25=1,30=1,71=1,74=-5/1,2,3;
 4/5=5,16=3,69=1/1;
 5/5=2,38=5/2;
 7//1,2,3,16;
 1/7=10,18=20,19=15,26=3/3(-5);
 2/9=110/2;
 6/7=2,8=2,9=2,10=2,19=2,28=1/1;
 99/9=1/99;
 ---------
 good luck
 ---------
 Symbolic Z-matrix:
 Charge =  0 Multiplicity = 1
 O                     0.2431    0.12211  -2.53742 
 C                     0.037     0.04864  -1.32913 
 C                     1.18936  -0.08241  -0.40382 
 C                     2.37565   0.59075  -0.71762 
 C                     3.48344   0.48282   0.12398 
 C                     3.41272  -0.30707   1.27138 
 C                     2.23916  -0.99779   1.57524 
 C                     1.12765  -0.89273   0.73649 
 C                    -1.35444   0.0984   -0.83287 
 C                    -1.7067    0.67247   0.39045 
 C                    -3.04632   0.68798   0.77501 
 C                    -3.98599   0.13621  -0.08226 
 N                    -3.67937  -0.41194  -1.27782 
 C                    -2.37033  -0.40723  -1.63377 
 H                     2.43866   1.19801  -1.61857 
 H                     4.4033    1.00868  -0.12002 
 H                     4.279    -0.39465   1.92309 
 H                     2.19538  -1.62762   2.46069 
 H                     0.23326  -1.46264   0.97427 
 H                    -0.96163   1.12405   1.03918 
 H                    -3.35276   1.12796   1.71794 
 H                    -5.0419    0.12604   0.17428 
 H                    -2.15822  -0.84001  -2.6087 
 

 GradGradGradGradGradGradGradGradGradGradGradGradGradGradGradGradGradGrad
 Berny optimization.
 Initialization pass.
                           ----------------------------
                           !    Initial Parameters    !
                           ! (Angstroms and Degrees)  !
 --------------------------                            --------------------------
 ! Name  Definition              Value          Derivative Info.                !
 --------------------------------------------------------------------------------
 ! R1    R(1,2)                  1.2279         estimate D2E/DX2                !
 ! R2    R(2,3)                  1.4837         estimate D2E/DX2                !
 ! R3    R(2,9)                  1.4781         estimate D2E/DX2                !
 ! R4    R(3,4)                  1.3996         estimate D2E/DX2                !
 ! R5    R(3,8)                  1.4003         estimate D2E/DX2                !
 ! R6    R(4,5)                  1.3954         estimate D2E/DX2                !
 ! R7    R(4,15)                 1.0883         estimate D2E/DX2                !
 ! R8    R(5,6)                  1.3948         estimate D2E/DX2                !
 ! R9    R(5,16)                 1.0873         estimate D2E/DX2                !
 ! R10   R(6,7)                  1.3952         estimate D2E/DX2                !
 ! R11   R(6,17)                 1.0876         estimate D2E/DX2                !
 ! R12   R(7,8)                  1.3964         estimate D2E/DX2                !
 ! R13   R(7,18)                 1.0875         estimate D2E/DX2                !
 ! R14   R(8,19)                 1.0869         estimate D2E/DX2                !
 ! R15   R(9,10)                 1.3965         estimate D2E/DX2                !
 ! R16   R(9,14)                 1.3889         estimate D2E/DX2                !
 ! R17   R(10,11)                1.3938         estimate D2E/DX2                !
 ! R18   R(10,20)                1.0862         estimate D2E/DX2                !
 ! R19   R(11,12)                1.3865         estimate D2E/DX2                !
 ! R20   R(11,21)                1.0847         estimate D2E/DX2                !
 ! R21   R(12,13)                1.3505         estimate D2E/DX2                !
 ! R22   R(12,22)                1.0867         estimate D2E/DX2                !
 ! R23   R(13,14)                1.3566         estimate D2E/DX2                !
 ! R24   R(14,23)                1.0876         estimate D2E/DX2                !
 ! A1    A(1,2,3)              119.2487         estimate D2E/DX2                !
 ! A2    A(1,2,9)              119.101          estimate D2E/DX2                !
 ! A3    A(3,2,9)              121.6499         estimate D2E/DX2                !
 ! A4    A(2,3,4)              118.425          estimate D2E/DX2                !
 ! A5    A(2,3,8)              121.6526         estimate D2E/DX2                !
 ! A6    A(4,3,8)              119.8849         estimate D2E/DX2                !
 ! A7    A(3,4,5)              120.031          estimate D2E/DX2                !
 ! A8    A(3,4,15)             120.2013         estimate D2E/DX2                !
 ! A9    A(5,4,15)             119.7676         estimate D2E/DX2                !
 ! A10   A(4,5,6)              119.9804         estimate D2E/DX2                !
 ! A11   A(4,5,16)             119.926          estimate D2E/DX2                !
 ! A12   A(6,5,16)             120.0918         estimate D2E/DX2                !
 ! A13   A(5,6,7)              120.1428         estimate D2E/DX2                !
 ! A14   A(5,6,17)             119.8788         estimate D2E/DX2                !
 ! A15   A(7,6,17)             119.9735         estimate D2E/DX2                !
 ! A16   A(6,7,8)              120.0962         estimate D2E/DX2                !
 ! A17   A(6,7,18)             119.8618         estimate D2E/DX2                !
 ! A18   A(8,7,18)             120.0382         estimate D2E/DX2                !
 ! A19   A(3,8,7)              119.8411         estimate D2E/DX2                !
 ! A20   A(3,8,19)             121.1895         estimate D2E/DX2                !
 ! A21   A(7,8,19)             118.9572         estimate D2E/DX2                !
 ! A22   A(2,9,10)             123.052          estimate D2E/DX2                !
 ! A23   A(2,9,14)             118.8603         estimate D2E/DX2                !
 ! A24   A(10,9,14)            118.0524         estimate D2E/DX2                !
 ! A25   A(9,10,11)            119.2559         estimate D2E/DX2                !
 ! A26   A(9,10,20)            121.4027         estimate D2E/DX2                !
 ! A27   A(11,10,20)           119.3306         estimate D2E/DX2                !
 ! A28   A(10,11,12)           118.4481         estimate D2E/DX2                !
 ! A29   A(10,11,21)           121.0559         estimate D2E/DX2                !
 ! A30   A(12,11,21)           120.4938         estimate D2E/DX2                !
 ! A31   A(11,12,13)           123.7122         estimate D2E/DX2                !
 ! A32   A(11,12,22)           121.0851         estimate D2E/DX2                !
 ! A33   A(13,12,22)           115.2014         estimate D2E/DX2                !
 ! A34   A(12,13,14)           116.7409         estimate D2E/DX2                !
 ! A35   A(9,14,13)            123.7627         estimate D2E/DX2                !
 ! A36   A(9,14,23)            121.2733         estimate D2E/DX2                !
 ! A37   A(13,14,23)           114.9631         estimate D2E/DX2                !
 ! D1    D(1,2,3,4)             35.5585         estimate D2E/DX2                !
 ! D2    D(1,2,3,8)           -142.2102         estimate D2E/DX2                !
 ! D3    D(9,2,3,4)           -144.1992         estimate D2E/DX2                !
 ! D4    D(9,2,3,8)             38.0321         estimate D2E/DX2                !
 ! D5    D(1,2,9,10)          -147.0368         estimate D2E/DX2                !
 ! D6    D(1,2,9,14)            30.7574         estimate D2E/DX2                !
 ! D7    D(3,2,9,10)            32.7213         estimate D2E/DX2                !
 ! D8    D(3,2,9,14)          -149.4845         estimate D2E/DX2                !
 ! D9    D(2,3,4,5)           -179.525          estimate D2E/DX2                !
 ! D10   D(2,3,4,15)             0.3523         estimate D2E/DX2                !
 ! D11   D(8,3,4,5)             -1.7156         estimate D2E/DX2                !
 ! D12   D(8,3,4,15)           178.1617         estimate D2E/DX2                !
 ! D13   D(2,3,8,7)            179.4281         estimate D2E/DX2                !
 ! D14   D(2,3,8,19)             0.7157         estimate D2E/DX2                !
 ! D15   D(4,3,8,7)              1.6913         estimate D2E/DX2                !
 ! D16   D(4,3,8,19)          -177.0211         estimate D2E/DX2                !
 ! D17   D(3,4,5,6)              0.6447         estimate D2E/DX2                !
 ! D18   D(3,4,5,16)          -179.8332         estimate D2E/DX2                !
 ! D19   D(15,4,5,6)          -179.2332         estimate D2E/DX2                !
 ! D20   D(15,4,5,16)            0.289          estimate D2E/DX2                !
 ! D21   D(4,5,6,7)              0.4515         estimate D2E/DX2                !
 ! D22   D(4,5,6,17)           179.6436         estimate D2E/DX2                !
 ! D23   D(16,5,6,7)          -179.0699         estimate D2E/DX2                !
 ! D24   D(16,5,6,17)            0.1223         estimate D2E/DX2                !
 ! D25   D(5,6,7,8)             -0.4731         estimate D2E/DX2                !
 ! D26   D(5,6,7,18)           178.8147         estimate D2E/DX2                !
 ! D27   D(17,6,7,8)          -179.6645         estimate D2E/DX2                !
 ! D28   D(17,6,7,18)           -0.3767         estimate D2E/DX2                !
 ! D29   D(6,7,8,3)             -0.6003         estimate D2E/DX2                !
 ! D30   D(6,7,8,19)           178.1408         estimate D2E/DX2                !
 ! D31   D(18,7,8,3)          -179.8869         estimate D2E/DX2                !
 ! D32   D(18,7,8,19)           -1.1458         estimate D2E/DX2                !
 ! D33   D(2,9,10,11)          179.3637         estimate D2E/DX2                !
 ! D34   D(2,9,10,20)            0.5712         estimate D2E/DX2                !
 ! D35   D(14,9,10,11)           1.5528         estimate D2E/DX2                !
 ! D36   D(14,9,10,20)        -177.2397         estimate D2E/DX2                !
 ! D37   D(2,9,14,13)         -179.9926         estimate D2E/DX2                !
 ! D38   D(2,9,14,23)            0.3448         estimate D2E/DX2                !
 ! D39   D(10,9,14,13)          -2.0876         estimate D2E/DX2                !
 ! D40   D(10,9,14,23)         178.2498         estimate D2E/DX2                !
 ! D41   D(9,10,11,12)          -0.4069         estimate D2E/DX2                !
 ! D42   D(9,10,11,21)        -179.8817         estimate D2E/DX2                !
 ! D43   D(20,10,11,12)        178.411          estimate D2E/DX2                !
 ! D44   D(20,10,11,21)         -1.0639         estimate D2E/DX2                !
 ! D45   D(10,11,12,13)         -0.3776         estimate D2E/DX2                !
 ! D46   D(10,11,12,22)       -179.9534         estimate D2E/DX2                !
 ! D47   D(21,11,12,13)        179.1003         estimate D2E/DX2                !
 ! D48   D(21,11,12,22)         -0.4755         estimate D2E/DX2                !
 ! D49   D(11,12,13,14)         -0.0512         estimate D2E/DX2                !
 ! D50   D(22,12,13,14)        179.5473         estimate D2E/DX2                !
 ! D51   D(12,13,14,9)           1.3235         estimate D2E/DX2                !
 ! D52   D(12,13,14,23)       -178.9946         estimate D2E/DX2                !
 --------------------------------------------------------------------------------
 Trust Radius=3.00D-01 FncErr=1.00D-07 GrdErr=1.00D-06 EigMax=2.50D+02 EigMin=1.00D-04
 Number of steps in this run=    123 maximum allowed number of steps=    138.
 GradGradGradGradGradGradGradGradGradGradGradGradGradGradGradGradGradGrad

                          Input orientation:                          
 ---------------------------------------------------------------------
 Center     Atomic      Atomic             Coordinates (Angstroms)
 Number     Number       Type             X           Y           Z
 ---------------------------------------------------------------------
      1          8           0        0.243101    0.122107   -2.537420
      2          6           0        0.036999    0.048638   -1.329133
      3          6           0        1.189355   -0.082409   -0.403823
      4          6           0        2.375645    0.590747   -0.717616
      5          6           0        3.483435    0.482815    0.123984
      6          6           0        3.412724   -0.307074    1.271378
      7          6           0        2.239163   -0.997788    1.575242
      8          6           0        1.127646   -0.892725    0.736494
      9          6           0       -1.354444    0.098396   -0.832871
     10          6           0       -1.706703    0.672465    0.390449
     11          6           0       -3.046323    0.687983    0.775007
     12          6           0       -3.985991    0.136214   -0.082258
     13          7           0       -3.679371   -0.411940   -1.277821
     14          6           0       -2.370334   -0.407230   -1.633765
     15          1           0        2.438656    1.198009   -1.618574
     16          1           0        4.403302    1.008678   -0.120015
     17          1           0        4.278997   -0.394654    1.923085
     18          1           0        2.195381   -1.627624    2.460685
     19          1           0        0.233262   -1.462640    0.974269
     20          1           0       -0.961626    1.124046    1.039183
     21          1           0       -3.352755    1.127957    1.717943
     22          1           0       -5.041903    0.126042    0.174275
     23          1           0       -2.158216   -0.840014   -2.608699
 ---------------------------------------------------------------------
                    Distance matrix (angstroms):
                    1          2          3          4          5
     1  O    0.000000
     2  C    1.227939   0.000000
     3  C    2.342960   1.483677   0.000000
     4  C    2.842368   2.477317   1.399603   0.000000
     5  C    4.208675   3.765366   2.420922   1.395399   0.000000
     6  C    4.973696   4.276062   2.792874   2.416136   1.394789
     7  C    4.706635   3.792088   2.420065   2.792717   2.417964
     8  C    3.539889   2.518430   1.400265   2.423350   2.795894
     9  C    2.336279   1.478129   2.586056   3.764207   4.946557
    10  C    3.560484   2.527176   3.096426   4.230845   5.200433
    11  C    4.702414   3.787221   4.463643   5.624510   6.565338
    12  C    4.890116   4.212697   5.189933   6.409422   7.480307
    13  N    4.154225   3.745153   4.957515   6.162989   7.353328
    14  C    2.815463   2.468981   3.780166   4.935545   6.176445
    15  H    2.611954   2.678206   2.162370   1.088330   2.153967
    16  H    4.892558   4.631225   3.405947   2.154805   1.087301
    17  H    6.037516   5.363579   3.880449   3.401039   2.153981
    18  H    5.643936   4.672386   3.406638   3.880111   3.401942
    19  H    3.852724   2.761909   2.172162   3.415945   3.882191
    20  H    3.904784   2.786158   2.857362   3.808954   4.583376
    21  H    5.661274   4.684019   5.157290   6.247808   7.049142
    22  H    5.940082   5.297308   6.261487   7.485415   8.532948
    23  H    2.587872   2.691832   4.079421   5.116558   6.406689
                    6          7          8          9         10
     6  C    0.000000
     7  C    1.395229   0.000000
     8  C    2.418816   1.396426   0.000000
     9  C    5.226678   4.462582   3.099354   0.000000
    10  C    5.286215   4.445598   3.256240   1.396479   0.000000
    11  C    6.554068   5.605226   4.463422   2.407351   1.393810
    12  C    7.534575   6.541086   5.279996   2.736766   2.388759
    13  N    7.537057   6.596380   5.234122   2.421510   2.801870
    14  C    6.472530   5.647473   4.253198   1.388928   2.388219
    15  H    3.400868   3.880951   3.411196   4.026672   4.636418
    16  H    2.156020   3.403425   3.883151   5.872684   6.140503
    17  H    1.087576   2.155386   3.403981   6.290791   6.270273
    18  H    2.154119   1.087483   2.157074   5.140809   4.980215
    19  H    3.395966   2.144970   1.086859   2.867647   2.943295
    20  H    4.608357   3.877446   2.919596   2.170449   1.086242
    21  H    6.930400   5.984037   5.012025   3.399985   2.163146
    22  H    8.536506   7.499308   6.278321   3.822625   3.386572
    23  H    6.809875   6.071836   4.689348   2.163383   3.389151
                   11         12         13         14         15
    11  C    0.000000
    12  C    1.386481   0.000000
    13  N    2.413438   1.350503   0.000000
    14  C    2.731050   2.304963   1.356575   0.000000
    15  H    6.006193   6.690573   6.335480   5.069853   0.000000
    16  H    7.510048   8.434622   8.287839   7.083670   2.478177
    17  H    7.493364   8.521341   8.577979   7.540885   4.297299
    18  H    5.973191   6.912817   7.068736   6.252970   4.968273
    19  H    3.926902   4.634078   4.635146   3.833333   4.320376
    20  H    2.146136   3.373459   3.887660   3.387317   4.316371
    21  H    1.084715   2.150643   3.384164   3.815219   6.684138
    22  H    2.158471   1.086675   2.062644   3.269659   7.766736
    23  H    3.817457   3.267520   2.066010   1.087563   5.124950
                   16         17         18         19         20
    16  H    0.000000
    17  H    2.481743   0.000000
    18  H    4.299420   2.480057   0.000000
    19  H    4.969316   4.290550   2.467096   0.000000
    20  H    5.489946   5.527374   4.422561   2.850073   0.000000
    21  H    7.971746   7.784861   6.239127   4.485952   2.485604
    22  H    9.490919   9.497823   7.789820   5.566980   4.288676
    23  H    7.257047   7.884994   6.728506   4.352527   4.312355
                   21         22         23
    21  H    0.000000
    22  H    2.497992   0.000000
    23  H    4.900986   4.122361   0.000000
 Stoichiometry    C12H9NO
 Framework group  C1[X(C12H9NO)]
 Deg. of freedom    63
 Full point group                 C1      NOp   1
 Largest Abelian subgroup         C1      NOp   1
 Largest concise Abelian subgroup C1      NOp   1
                         Standard orientation:                         
 ---------------------------------------------------------------------
 Center     Atomic      Atomic             Coordinates (Angstroms)
 Number     Number       Type             X           Y           Z
 ---------------------------------------------------------------------
      1          8           0       -0.026150    2.300930   -0.067322
      2          6           0       -0.014376    1.073565   -0.031664
      3          6           0        1.286125    0.359967   -0.059447
      4          6           0        2.377420    0.937987    0.599232
      5          6           0        3.618647    0.300553    0.586055
      6          6           0        3.775109   -0.906453   -0.095188
      7          6           0        2.695137   -1.474032   -0.772078
      8          6           0        1.450833   -0.840310   -0.761549
      9          6           0       -1.297844    0.344206    0.043246
     10          6           0       -1.447279   -0.866579    0.722822
     11          6           0       -2.698321   -1.480276    0.754069
     12          6           0       -3.756462   -0.855974    0.111485
     13          7           0       -3.647858    0.321786   -0.540395
     14          6           0       -2.422507    0.903791   -0.549307
     15          1           0        2.262331    1.885937    1.121351
     16          1           0        4.464614    0.749768    1.100612
     17          1           0        4.744699   -1.398914   -0.109250
     18          1           0        2.827120   -2.405355   -1.317823
     19          1           0        0.630210   -1.282792   -1.320163
     20          1           0       -0.614146   -1.329965    1.243480
     21          1           0       -2.847779   -2.419979    1.274863
     22          1           0       -4.750047   -1.296028    0.109498
     23          1           0       -2.371695    1.858723   -1.067298
 ---------------------------------------------------------------------
 Rotational constants (GHZ):           1.7231192           0.4093996           0.3560205
 Standard basis: 6-31G(d) (6D, 7F)
 There are   228 symmetry adapted cartesian basis functions of A   symmetry.
 There are   228 symmetry adapted basis functions of A   symmetry.
   228 basis functions,   428 primitive gaussians,   228 cartesian basis functions
    48 alpha electrons       48 beta electrons
       nuclear repulsion energy       778.6175339123 Hartrees.
 NAtoms=   23 NActive=   23 NUniq=   23 SFac= 1.00D+00 NAtFMM=   60 NAOKFM=F Big=F
 Integral buffers will be    131072 words long.
 Raffenetti 2 integral format.
 Two-electron integral symmetry is turned on.
 One-electron integrals computed using PRISM.
 NBasis=   228 RedAO= T EigKep=  4.72D-04  NBF=   228
 NBsUse=   228 1.00D-06 EigRej= -1.00D+00 NBFU=   228
 ExpMin= 1.61D-01 ExpMax= 5.48D+03 ExpMxC= 8.25D+02 IAcc=3 IRadAn=         5 AccDes= 0.00D+00
 Harris functional with IExCor=  402 and IRadAn=       5 diagonalized for initial guess.
 HarFok:  IExCor=  402 AccDes= 0.00D+00 IRadAn=         5 IDoV= 1 UseB2=F ITyADJ=14
 ICtDFT=  3500011 ScaDFX=  1.000000  1.000000  1.000000  1.000000
 FoFCou: FMM=F IPFlag=           0 FMFlag=      100000 FMFlg1=           0
         NFxFlg=           0 DoJE=T BraDBF=F KetDBF=T FulRan=T
         wScrn=  0.000000 ICntrl=       500 IOpCl=  0 I1Cent=   200000004 NGrid=           0
         NMat0=    1 NMatS0=      1 NMatT0=    0 NMatD0=    1 NMtDS0=    0 NMtDT0=    0
 Petite list used in FoFCou.
 Requested convergence on RMS density matrix=1.00D-08 within 128 cycles.
 Requested convergence on MAX density matrix=1.00D-06.
 Requested convergence on             energy=1.00D-06.
 No special actions if energy rises.
 Integral accuracy reduced to 1.0D-05 until final iterations.
 Initial convergence to 1.0D-05 achieved.  Increase integral accuracy.
 SCF Done:  E(RB3LYP) =  -592.664279707     A.U. after   15 cycles
            NFock= 15  Conv=0.44D-08     -V/T= 2.0095

 **********************************************************************

            Population analysis using the SCF density.

 **********************************************************************

 Orbital symmetries:
       Occupied  (A) (A) (A) (A) (A) (A) (A) (A) (A) (A) (A) (A)
                 (A) (A) (A) (A) (A) (A) (A) (A) (A) (A) (A) (A)
                 (A) (A) (A) (A) (A) (A) (A) (A) (A) (A) (A) (A)
                 (A) (A) (A) (A) (A) (A) (A) (A) (A) (A) (A) (A)
       Virtual   (A) (A) (A) (A) (A) (A) (A) (A) (A) (A) (A) (A)
                 (A) (A) (A) (A) (A) (A) (A) (A) (A) (A) (A) (A)
                 (A) (A) (A) (A) (A) (A) (A) (A) (A) (A) (A) (A)
                 (A) (A) (A) (A) (A) (A) (A) (A) (A) (A) (A) (A)
                 (A) (A) (A) (A) (A) (A) (A) (A) (A) (A) (A) (A)
                 (A) (A) (A) (A) (A) (A) (A) (A) (A) (A) (A) (A)
                 (A) (A) (A) (A) (A) (A) (A) (A) (A) (A) (A) (A)
                 (A) (A) (A) (A) (A) (A) (A) (A) (A) (A) (A) (A)
                 (A) (A) (A) (A) (A) (A) (A) (A) (A) (A) (A) (A)
                 (A) (A) (A) (A) (A) (A) (A) (A) (A) (A) (A) (A)
                 (A) (A) (A) (A) (A) (A) (A) (A) (A) (A) (A) (A)
                 (A) (A) (A) (A) (A) (A) (A) (A) (A) (A) (A) (A)
                 (A) (A) (A) (A) (A) (A) (A) (A) (A) (A) (A) (A)
                 (A) (A) (A) (A) (A) (A) (A) (A) (A) (A) (A) (A)
                 (A) (A) (A) (A) (A) (A) (A) (A) (A) (A) (A) (A)
 The electronic state is 1-A.
 Alpha  occ. eigenvalues --  -19.13854 -14.33964 -10.27935 -10.23395 -10.23216
 Alpha  occ. eigenvalues --  -10.22211 -10.21130 -10.20944 -10.20828 -10.20754
 Alpha  occ. eigenvalues --  -10.20601 -10.20426 -10.20403 -10.20276  -1.03877
 Alpha  occ. eigenvalues --   -0.94335  -0.86844  -0.82150  -0.78167  -0.76641
 Alpha  occ. eigenvalues --   -0.75797  -0.66980  -0.64302  -0.62639  -0.61614
 Alpha  occ. eigenvalues --   -0.56934  -0.53814  -0.51583  -0.49387  -0.48107
 Alpha  occ. eigenvalues --   -0.46551  -0.45413  -0.44575  -0.43425  -0.42725
 Alpha  occ. eigenvalues --   -0.41312  -0.40947  -0.39023  -0.37763  -0.36869
 Alpha  occ. eigenvalues --   -0.36247  -0.35523  -0.29428  -0.27712  -0.27059
 Alpha  occ. eigenvalues --   -0.26411  -0.26091  -0.24592
 Alpha virt. eigenvalues --   -0.06891  -0.03574  -0.01937  -0.01219   0.04418
 Alpha virt. eigenvalues --    0.08616   0.09681   0.13270   0.13452   0.14584
 Alpha virt. eigenvalues --    0.14979   0.15785   0.16561   0.17374   0.17582
 Alpha virt. eigenvalues --    0.18070   0.22699   0.24697   0.27056   0.27969
 Alpha virt. eigenvalues --    0.28755   0.29813   0.30065   0.33034   0.34157
 Alpha virt. eigenvalues --    0.38289   0.40055   0.42740   0.45178   0.46422
 Alpha virt. eigenvalues --    0.50681   0.51640   0.51953   0.52981   0.54589
 Alpha virt. eigenvalues --    0.55367   0.56138   0.56780   0.57209   0.57974
 Alpha virt. eigenvalues --    0.58812   0.58936   0.59539   0.59989   0.60205
 Alpha virt. eigenvalues --    0.60883   0.62076   0.63700   0.63954   0.64380
 Alpha virt. eigenvalues --    0.66759   0.67237   0.69024   0.71193   0.73788
 Alpha virt. eigenvalues --    0.76004   0.77621   0.81000   0.81224   0.81808
 Alpha virt. eigenvalues --    0.82572   0.82830   0.83885   0.84947   0.85735
 Alpha virt. eigenvalues --    0.86105   0.87639   0.88673   0.89671   0.92404
 Alpha virt. eigenvalues --    0.92967   0.94501   0.97354   0.98055   0.99076
 Alpha virt. eigenvalues --    1.02242   1.03190   1.05494   1.07744   1.09294
 Alpha virt. eigenvalues --    1.11560   1.13114   1.13860   1.16046   1.18265
 Alpha virt. eigenvalues --    1.18707   1.22438   1.24235   1.25635   1.26419
 Alpha virt. eigenvalues --    1.31301   1.36831   1.39885   1.41255   1.42733
 Alpha virt. eigenvalues --    1.43619   1.45304   1.45754   1.47836   1.49079
 Alpha virt. eigenvalues --    1.49825   1.49983   1.50775   1.50892   1.52836
 Alpha virt. eigenvalues --    1.64181   1.71394   1.74201   1.76041   1.76799
 Alpha virt. eigenvalues --    1.77625   1.79242   1.80891   1.84028   1.86316
 Alpha virt. eigenvalues --    1.87118   1.88492   1.90700   1.93216   1.95657
 Alpha virt. eigenvalues --    1.97427   2.00773   2.03545   2.04489   2.06350
 Alpha virt. eigenvalues --    2.11501   2.12798   2.13439   2.14000   2.14832
 Alpha virt. eigenvalues --    2.15193   2.16704   2.19251   2.24363   2.27967
 Alpha virt. eigenvalues --    2.28660   2.28992   2.30221   2.31005   2.33180
 Alpha virt. eigenvalues --    2.36199   2.39492   2.47671   2.51469   2.53495
 Alpha virt. eigenvalues --    2.56682   2.57655   2.59696   2.61290   2.64242
 Alpha virt. eigenvalues --    2.67525   2.68659   2.71024   2.72126   2.73306
 Alpha virt. eigenvalues --    2.74829   2.75743   2.79933   2.83972   2.88605
 Alpha virt. eigenvalues --    2.96386   2.98166   3.12092   3.17042   3.37741
 Alpha virt. eigenvalues --    3.41864   3.98862   4.04747   4.07738   4.10242
 Alpha virt. eigenvalues --    4.10551   4.12904   4.13980   4.22090   4.30785
 Alpha virt. eigenvalues --    4.33937   4.34772   4.45155   4.62275   4.72856
          Condensed to atoms (all electrons):
               1          2          3          4          5          6
     1  O    8.065817   0.554280  -0.096752   0.002980   0.000661  -0.000009
     2  C    0.554280   4.738598   0.293204  -0.025307   0.005413   0.000425
     3  C   -0.096752   0.293204   4.970588   0.498494  -0.020205  -0.034568
     4  C    0.002980  -0.025307   0.498494   4.959230   0.507585  -0.033652
     5  C    0.000661   0.005413  -0.020205   0.507585   4.890281   0.541341
     6  C   -0.000009   0.000425  -0.034568  -0.033652   0.541341   4.847152
     7  C   -0.000078   0.004498  -0.016409  -0.042106  -0.026651   0.551163
     8  C    0.001823  -0.044394   0.515420  -0.056508  -0.042404  -0.037863
     9  C   -0.098003   0.250904  -0.113410   0.008259  -0.000100  -0.000009
    10  C    0.002471  -0.052797  -0.004212   0.000237  -0.000019  -0.000003
    11  C   -0.000086   0.005758   0.000047   0.000011   0.000000  -0.000000
    12  C   -0.000003   0.000573  -0.000014   0.000000   0.000000   0.000000
    13  N    0.000330   0.005165  -0.000079   0.000000  -0.000000  -0.000000
    14  C    0.004090  -0.013544   0.007552  -0.000215   0.000001   0.000000
    15  H    0.009344  -0.007017  -0.045032   0.359242  -0.042770   0.004489
    16  H    0.000002  -0.000148   0.003816  -0.039130   0.359788  -0.043182
    17  H    0.000000   0.000005   0.000537   0.004626  -0.042847   0.360074
    18  H    0.000001  -0.000143   0.003637   0.000819   0.004527  -0.042303
    19  H    0.000026  -0.007899  -0.043665   0.005492   0.000327   0.004528
    20  H    0.000039  -0.008689   0.007067  -0.000163  -0.000027  -0.000014
    21  H    0.000000  -0.000064  -0.000001  -0.000000  -0.000000   0.000000
    22  H    0.000000   0.000016  -0.000000   0.000000  -0.000000  -0.000000
    23  H    0.009986  -0.002611   0.000461  -0.000010  -0.000000   0.000000
               7          8          9         10         11         12
     1  O   -0.000078   0.001823  -0.098003   0.002471  -0.000086  -0.000003
     2  C    0.004498  -0.044394   0.250904  -0.052797   0.005758   0.000573
     3  C   -0.016409   0.515420  -0.113410  -0.004212   0.000047  -0.000014
     4  C   -0.042106  -0.056508   0.008259   0.000237   0.000011   0.000000
     5  C   -0.026651  -0.042404  -0.000100  -0.000019   0.000000   0.000000
     6  C    0.551163  -0.037863  -0.000009  -0.000003  -0.000000   0.000000
     7  C    4.866150   0.520304   0.000121  -0.000097  -0.000012  -0.000000
     8  C    0.520304   4.989055  -0.005881  -0.002999   0.000004  -0.000005
     9  C    0.000121  -0.005881   5.111022   0.507194  -0.014447  -0.031810
    10  C   -0.000097  -0.002999   0.507194   4.996999   0.510318  -0.038095
    11  C   -0.000012   0.000004  -0.014447   0.510318   4.959013   0.501840
    12  C   -0.000000  -0.000005  -0.031810  -0.038095   0.501840   4.780140
    13  N   -0.000000  -0.000005  -0.011260  -0.052391  -0.023079   0.457453
    14  C    0.000012   0.000171   0.430327  -0.057303  -0.040685  -0.071331
    15  H    0.000291   0.005674   0.000684  -0.000031   0.000001   0.000000
    16  H    0.004545   0.000797   0.000002  -0.000000   0.000000   0.000000
    17  H   -0.042807   0.005023  -0.000000   0.000000   0.000000  -0.000000
    18  H    0.358657  -0.039450   0.000006  -0.000006   0.000000   0.000000
    19  H   -0.041515   0.355559   0.006307   0.003088   0.000083  -0.000001
    20  H    0.000154   0.003917  -0.043562   0.359624  -0.044312   0.004414
    21  H    0.000000  -0.000005   0.004536  -0.040661   0.352024  -0.035785
    22  H    0.000000   0.000000   0.000556   0.003720  -0.063561   0.378591
    23  H    0.000000  -0.000023  -0.064921   0.004486   0.000249   0.004879
              13         14         15         16         17         18
     1  O    0.000330   0.004090   0.009344   0.000002   0.000000   0.000001
     2  C    0.005165  -0.013544  -0.007017  -0.000148   0.000005  -0.000143
     3  C   -0.000079   0.007552  -0.045032   0.003816   0.000537   0.003637
     4  C    0.000000  -0.000215   0.359242  -0.039130   0.004626   0.000819
     5  C   -0.000000   0.000001  -0.042770   0.359788  -0.042847   0.004527
     6  C   -0.000000   0.000000   0.004489  -0.043182   0.360074  -0.042303
     7  C   -0.000000   0.000012   0.000291   0.004545  -0.042807   0.358657
     8  C   -0.000005   0.000171   0.005674   0.000797   0.005023  -0.039450
     9  C   -0.011260   0.430327   0.000684   0.000002  -0.000000   0.000006
    10  C   -0.052391  -0.057303  -0.000031  -0.000000   0.000000  -0.000006
    11  C   -0.023079  -0.040685   0.000001   0.000000   0.000000   0.000000
    12  C    0.457453  -0.071331   0.000000   0.000000  -0.000000   0.000000
    13  N    6.716784   0.420230  -0.000000   0.000000  -0.000000   0.000000
    14  C    0.420230   4.914342  -0.000016  -0.000000   0.000000  -0.000000
    15  H   -0.000000  -0.000016   0.560672  -0.005002  -0.000162   0.000017
    16  H    0.000000  -0.000000  -0.005002   0.583856  -0.005500  -0.000176
    17  H   -0.000000   0.000000  -0.000162  -0.005500   0.588131  -0.005560
    18  H    0.000000  -0.000000   0.000017  -0.000176  -0.005560   0.586857
    19  H   -0.000008  -0.000166  -0.000135   0.000016  -0.000172  -0.005081
    20  H   -0.000262   0.005660  -0.000011  -0.000000   0.000000  -0.000004
    21  H    0.004634   0.000419  -0.000000  -0.000000   0.000000  -0.000000
    22  H   -0.052942   0.005177   0.000000   0.000000  -0.000000   0.000000
    23  H   -0.049128   0.377470  -0.000003  -0.000000   0.000000  -0.000000
              19         20         21         22         23
     1  O    0.000026   0.000039   0.000000   0.000000   0.009986
     2  C   -0.007899  -0.008689  -0.000064   0.000016  -0.002611
     3  C   -0.043665   0.007067  -0.000001  -0.000000   0.000461
     4  C    0.005492  -0.000163  -0.000000   0.000000  -0.000010
     5  C    0.000327  -0.000027  -0.000000  -0.000000  -0.000000
     6  C    0.004528  -0.000014   0.000000  -0.000000   0.000000
     7  C   -0.041515   0.000154   0.000000   0.000000   0.000000
     8  C    0.355559   0.003917  -0.000005   0.000000  -0.000023
     9  C    0.006307  -0.043562   0.004536   0.000556  -0.064921
    10  C    0.003088   0.359624  -0.040661   0.003720   0.004486
    11  C    0.000083  -0.044312   0.352024  -0.063561   0.000249
    12  C   -0.000001   0.004414  -0.035785   0.378591   0.004879
    13  N   -0.000008  -0.000262   0.004634  -0.052942  -0.049128
    14  C   -0.000166   0.005660   0.000419   0.005177   0.377470
    15  H   -0.000135  -0.000011  -0.000000   0.000000  -0.000003
    16  H    0.000016  -0.000000  -0.000000   0.000000  -0.000000
    17  H   -0.000172   0.000000   0.000000  -0.000000   0.000000
    18  H   -0.005081  -0.000004  -0.000000   0.000000  -0.000000
    19  H    0.576957  -0.000428  -0.000004   0.000000  -0.000007
    20  H   -0.000428   0.562301  -0.005527  -0.000174  -0.000141
    21  H   -0.000004  -0.005527   0.577754  -0.002060   0.000025
    22  H    0.000000  -0.000174  -0.002060   0.580488  -0.000176
    23  H   -0.000007  -0.000141   0.000025  -0.000176   0.544228
 Mulliken charges:
               1
     1  O   -0.456919
     2  C    0.303774
     3  C    0.073525
     4  C   -0.149885
     5  C   -0.134901
     6  C   -0.117571
     7  C   -0.136221
     8  C   -0.168207
     9  C    0.063484
    10  C   -0.139523
    11  C   -0.143165
    12  C    0.049154
    13  N   -0.415441
    14  C    0.017810
    15  H    0.159765
    16  H    0.140317
    17  H    0.138651
    18  H    0.138202
    19  H    0.146697
    20  H    0.160139
    21  H    0.144716
    22  H    0.150365
    23  H    0.175234
 Sum of Mulliken charges =  -0.00000
 Mulliken charges with hydrogens summed into heavy atoms:
               1
     1  O   -0.456919
     2  C    0.303774
     3  C    0.073525
     4  C    0.009880
     5  C    0.005416
     6  C    0.021080
     7  C    0.001981
     8  C   -0.021510
     9  C    0.063484
    10  C    0.020616
    11  C    0.001551
    12  C    0.199519
    13  N   -0.415441
    14  C    0.193044
 Electronic spatial extent (au):  <R**2>=           3035.2467
 Charge=             -0.0000 electrons
 Dipole moment (field-independent basis, Debye):
    X=              2.0508    Y=             -3.9209    Z=              1.0822  Tot=              4.5552
 Quadrupole moment (field-independent basis, Debye-Ang):
   XX=            -75.5545   YY=            -80.6887   ZZ=            -78.7640
   XY=              4.1424   XZ=             -1.7831   YZ=              1.0584
 Traceless Quadrupole moment (field-independent basis, Debye-Ang):
   XX=              2.7812   YY=             -2.3529   ZZ=             -0.4283
   XY=              4.1424   XZ=             -1.7831   YZ=              1.0584
 Octapole moment (field-independent basis, Debye-Ang**2):
  XXX=             56.8617  YYY=            -16.5237  ZZZ=             -0.4944  XYY=             -2.8989
  XXY=            -26.0642  XXZ=             22.2354  XZZ=              0.4928  YZZ=              2.4917
  YYZ=              0.9492  XYZ=             12.5393
 Hexadecapole moment (field-independent basis, Debye-Ang**3):
 XXXX=          -3082.2008 YYYY=           -712.1039 ZZZZ=           -238.3587 XXXY=             83.5751
 XXXZ=            -27.9620 YYYX=              1.0543 YYYZ=              0.7606 ZZZX=              3.8919
 ZZZY=              0.1186 XXYY=           -592.8901 XXZZ=           -596.1363 YYZZ=           -138.2379
 XXYZ=             17.6636 YYXZ=             -8.6065 ZZXY=              3.8296
 N-N= 7.786175339123D+02 E-N=-2.933350205631D+03  KE= 5.870967416322D+02
 Calling FoFJK, ICntrl=      2127 FMM=F ISym2X=0 I1Cent= 0 IOpClX= 0 NMat=1 NMatS=1 NMatT=0.
 ***** Axes restored to original set *****
 -------------------------------------------------------------------
 Center     Atomic                   Forces (Hartrees/Bohr)
 Number     Number              X              Y              Z
 -------------------------------------------------------------------
      1        8          -0.000309953    0.000726344   -0.001562341
      2        6           0.006904884    0.001044990   -0.017291607
      3        6          -0.002409289    0.000395238    0.004907579
      4        6           0.007982644    0.001479500    0.000527693
      5        6          -0.001490314    0.000961236   -0.002973970
      6        6           0.001655243   -0.001047078    0.002087637
      7        6          -0.000053707   -0.001986913   -0.000329379
      8        6           0.003461499    0.000143505    0.006774421
      9        6           0.002356503    0.001237199    0.009340420
     10        6          -0.003875033    0.001398345    0.007660414
     11        6           0.005142253    0.003242998    0.002064798
     12        6          -0.001662843   -0.007633636   -0.014094098
     13        7           0.014190815    0.004450510    0.003410010
     14        6          -0.030284478   -0.004655670   -0.002016436
     15        1          -0.002966593   -0.001815766    0.001255158
     16        1          -0.000661084    0.000086627    0.000177124
     17        1          -0.000614370    0.000218345    0.000075463
     18        1          -0.000339822    0.000024289   -0.000740210
     19        1          -0.001158607    0.002287843   -0.001431143
     20        1           0.002016647   -0.001914283   -0.001126824
     21        1          -0.000059115    0.000671548    0.000623108
     22        1          -0.001107802    0.000164804    0.001173525
     23        1           0.003282521    0.000520025    0.001488658
 -------------------------------------------------------------------
 Cartesian Forces:  Max     0.030284478 RMS     0.005679103

 GradGradGradGradGradGradGradGradGradGradGradGradGradGradGradGradGradGrad
 Berny optimization.
 FormGI is forming the generalized inverse of G from B-inverse, IUseBI=4.
 Internal  Forces:  Max     0.016177028 RMS     0.003083889
 Search for a local minimum.
 Step number   1 out of a maximum of  123
 All quantities printed in internal units (Hartrees-Bohrs-Radians)
 Mixed Optimization -- RFO/linear search
 Second derivative matrix not updated -- first step.
 ITU=  0
     Eigenvalues ---    0.00982   0.01019   0.01055   0.01754   0.01824
     Eigenvalues ---    0.02097   0.02111   0.02122   0.02134   0.02144
     Eigenvalues ---    0.02152   0.02152   0.02153   0.02155   0.02175
     Eigenvalues ---    0.02218   0.02234   0.02245   0.02286   0.02301
     Eigenvalues ---    0.15996   0.15996   0.15998   0.15999   0.15999
     Eigenvalues ---    0.16000   0.16000   0.16000   0.16000   0.21998
     Eigenvalues ---    0.21999   0.22000   0.23179   0.23448   0.23476
     Eigenvalues ---    0.24981   0.24981   0.25000   0.25000   0.34152
     Eigenvalues ---    0.34785   0.35006   0.35094   0.35096   0.35105
     Eigenvalues ---    0.35126   0.35178   0.35200   0.35251   0.35431
     Eigenvalues ---    0.41915   0.41938   0.43190   0.44081   0.45757
     Eigenvalues ---    0.46079   0.46298   0.46441   0.46757   0.47737
     Eigenvalues ---    0.52231   0.53870   0.91951
 RFO step:  Lambda=-4.80304949D-03 EMin= 9.81874771D-03
 Linear search not attempted -- first point.
 Iteration  1 RMS(Cart)=  0.12278959 RMS(Int)=  0.00387752
 Iteration  2 RMS(Cart)=  0.00702096 RMS(Int)=  0.00004926
 Iteration  3 RMS(Cart)=  0.00001894 RMS(Int)=  0.00004827
 Iteration  4 RMS(Cart)=  0.00000000 RMS(Int)=  0.00004827
 Variable       Old X    -DE/DX   Delta X   Delta X   Delta X     New X
                                 (Linear)    (Quad)   (Total)
    R1        2.32047   0.00153   0.00000   0.00165   0.00165   2.32212
    R2        2.80374   0.00902   0.00000   0.02605   0.02605   2.82979
    R3        2.79326   0.01219   0.00000   0.03457   0.03457   2.82783
    R4        2.64487   0.00216   0.00000   0.00466   0.00465   2.64952
    R5        2.64612   0.00258   0.00000   0.00563   0.00560   2.65172
    R6        2.63692  -0.00159   0.00000  -0.00343  -0.00341   2.63351
    R7        2.05665  -0.00222   0.00000  -0.00627  -0.00627   2.05038
    R8        2.63577   0.00273   0.00000   0.00579   0.00582   2.64159
    R9        2.05470  -0.00056   0.00000  -0.00156  -0.00156   2.05314
   R10        2.63660   0.00085   0.00000   0.00182   0.00183   2.63843
   R11        2.05522  -0.00046   0.00000  -0.00130  -0.00130   2.05392
   R12        2.63886  -0.00049   0.00000  -0.00102  -0.00104   2.63782
   R13        2.05505  -0.00060   0.00000  -0.00169  -0.00169   2.05335
   R14        2.05387  -0.00056   0.00000  -0.00157  -0.00157   2.05230
   R15        2.63896   0.00304   0.00000   0.00786   0.00784   2.64680
   R16        2.62469   0.01183   0.00000   0.02469   0.02467   2.64936
   R17        2.63392  -0.00158   0.00000  -0.00211  -0.00211   2.63181
   R18        2.05270  -0.00009   0.00000  -0.00024  -0.00024   2.05246
   R19        2.62007   0.00810   0.00000   0.01660   0.01662   2.63669
   R20        2.04981   0.00083   0.00000   0.00231   0.00231   2.05213
   R21        2.55208  -0.00808   0.00000  -0.01570  -0.01568   2.53640
   R22        2.05352   0.00135   0.00000   0.00379   0.00379   2.05731
   R23        2.56356  -0.01618   0.00000  -0.03096  -0.03096   2.53260
   R24        2.05520  -0.00090   0.00000  -0.00253  -0.00253   2.05266
    A1        2.08128   0.00491   0.00000   0.01927   0.01927   2.10056
    A2        2.07870   0.00351   0.00000   0.01377   0.01377   2.09247
    A3        2.12319  -0.00842   0.00000  -0.03304  -0.03304   2.09015
    A4        2.06691   0.00032   0.00000   0.00123   0.00128   2.06819
    A5        2.12324   0.00195   0.00000   0.00765   0.00770   2.13093
    A6        2.09239  -0.00228   0.00000  -0.00909  -0.00921   2.08317
    A7        2.09494   0.00108   0.00000   0.00461   0.00454   2.09948
    A8        2.09791  -0.00358   0.00000  -0.02071  -0.02068   2.07722
    A9        2.09034   0.00249   0.00000   0.01610   0.01613   2.10647
   A10        2.09405   0.00043   0.00000   0.00171   0.00168   2.09574
   A11        2.09310  -0.00039   0.00000  -0.00192  -0.00191   2.09120
   A12        2.09600  -0.00004   0.00000   0.00020   0.00022   2.09621
   A13        2.09689  -0.00058   0.00000  -0.00267  -0.00272   2.09416
   A14        2.09228   0.00052   0.00000   0.00281   0.00281   2.09509
   A15        2.09393   0.00006   0.00000   0.00000  -0.00000   2.09393
   A16        2.09607  -0.00033   0.00000  -0.00140  -0.00153   2.09454
   A17        2.09198   0.00066   0.00000   0.00379   0.00379   2.09577
   A18        2.09506  -0.00033   0.00000  -0.00220  -0.00220   2.09286
   A19        2.09162   0.00168   0.00000   0.00748   0.00735   2.09897
   A20        2.11516  -0.00343   0.00000  -0.01953  -0.01947   2.09568
   A21        2.07619   0.00175   0.00000   0.01191   0.01197   2.08816
   A22        2.14766   0.00112   0.00000   0.00288   0.00293   2.15059
   A23        2.07450   0.00097   0.00000   0.00227   0.00231   2.07682
   A24        2.06040  -0.00209   0.00000  -0.00520  -0.00530   2.05511
   A25        2.08141  -0.00294   0.00000  -0.00715  -0.00724   2.07417
   A26        2.11888  -0.00123   0.00000  -0.01285  -0.01281   2.10607
   A27        2.08271   0.00417   0.00000   0.01994   0.01999   2.10270
   A28        2.06731  -0.00053   0.00000   0.00059   0.00052   2.06783
   A29        2.11282   0.00003   0.00000  -0.00165  -0.00164   2.11118
   A30        2.10301   0.00049   0.00000   0.00115   0.00116   2.10417
   A31        2.15918   0.00139   0.00000   0.00366   0.00363   2.16281
   A32        2.11333  -0.00158   0.00000  -0.00719  -0.00718   2.10616
   A33        2.01064   0.00019   0.00000   0.00356   0.00357   2.01421
   A34        2.03751   0.00198   0.00000   0.00103   0.00097   2.03849
   A35        2.16007   0.00220   0.00000   0.00774   0.00767   2.16773
   A36        2.11662  -0.00468   0.00000  -0.02560  -0.02557   2.09105
   A37        2.00649   0.00248   0.00000   0.01789   0.01792   2.02440
    D1        0.62061  -0.00205   0.00000  -0.13706  -0.13709   0.48353
    D2       -2.48204  -0.00187   0.00000  -0.13042  -0.13039  -2.61243
    D3       -2.51675  -0.00204   0.00000  -0.13661  -0.13664  -2.65339
    D4        0.66378  -0.00186   0.00000  -0.12998  -0.12995   0.53384
    D5       -2.56628  -0.00132   0.00000  -0.08685  -0.08685  -2.65312
    D6        0.53682  -0.00138   0.00000  -0.08864  -0.08865   0.44817
    D7        0.57109  -0.00132   0.00000  -0.08728  -0.08728   0.48382
    D8       -2.60900  -0.00139   0.00000  -0.08907  -0.08907  -2.69807
    D9       -3.13330   0.00049   0.00000   0.02117   0.02110  -3.11220
   D10        0.00615   0.00044   0.00000   0.01837   0.01834   0.02449
   D11       -0.02994   0.00041   0.00000   0.01504   0.01497  -0.01497
   D12        3.10951   0.00035   0.00000   0.01224   0.01222   3.12173
   D13        3.13161  -0.00106   0.00000  -0.04175  -0.04176   3.08985
   D14        0.01249  -0.00090   0.00000  -0.03468  -0.03470  -0.02221
   D15        0.02952  -0.00093   0.00000  -0.03525  -0.03525  -0.00573
   D16       -3.08960  -0.00078   0.00000  -0.02818  -0.02818  -3.11779
   D17        0.01125   0.00023   0.00000   0.00821   0.00814   0.01940
   D18       -3.13868   0.00020   0.00000   0.00710   0.00708  -3.13160
   D19       -3.12821   0.00029   0.00000   0.01104   0.01099  -3.11722
   D20        0.00504   0.00026   0.00000   0.00993   0.00993   0.01498
   D21        0.00788  -0.00028   0.00000  -0.01095  -0.01093  -0.00305
   D22        3.13537   0.00002   0.00000   0.00072   0.00079   3.13616
   D23       -3.12536  -0.00024   0.00000  -0.00983  -0.00986  -3.13522
   D24        0.00213   0.00005   0.00000   0.00185   0.00186   0.00400
   D25       -0.00826  -0.00025   0.00000  -0.00941  -0.00935  -0.01761
   D26        3.12091   0.00019   0.00000   0.00796   0.00804   3.12895
   D27       -3.13574  -0.00055   0.00000  -0.02112  -0.02108   3.12636
   D28       -0.00657  -0.00011   0.00000  -0.00374  -0.00369  -0.01027
   D29       -0.01048   0.00083   0.00000   0.03240   0.03247   0.02200
   D30        3.10914   0.00062   0.00000   0.02508   0.02504   3.13418
   D31       -3.13962   0.00039   0.00000   0.01495   0.01507  -3.12455
   D32       -0.02000   0.00017   0.00000   0.00763   0.00763  -0.01237
   D33        3.13049  -0.00095   0.00000  -0.03483  -0.03472   3.09577
   D34        0.00997  -0.00089   0.00000  -0.03206  -0.03202  -0.02206
   D35        0.02710  -0.00095   0.00000  -0.03321  -0.03310  -0.00599
   D36       -3.09342  -0.00088   0.00000  -0.03044  -0.03040  -3.12382
   D37       -3.14146   0.00060   0.00000   0.02498   0.02505  -3.11641
   D38        0.00602   0.00046   0.00000   0.01860   0.01867   0.02468
   D39       -0.03644   0.00060   0.00000   0.02345   0.02353  -0.01291
   D40        3.11105   0.00046   0.00000   0.01707   0.01714   3.12818
   D41       -0.00710   0.00063   0.00000   0.02541   0.02544   0.01834
   D42       -3.13953   0.00035   0.00000   0.01380   0.01380  -3.12573
   D43        3.11386   0.00050   0.00000   0.02230   0.02235   3.13621
   D44       -0.01857   0.00022   0.00000   0.01069   0.01071  -0.00786
   D45       -0.00659  -0.00021   0.00000  -0.00725  -0.00730  -0.01390
   D46       -3.14078  -0.00034   0.00000  -0.01262  -0.01266   3.12975
   D47        3.12589   0.00007   0.00000   0.00428   0.00428   3.13017
   D48       -0.00830  -0.00006   0.00000  -0.00109  -0.00108  -0.00937
   D49       -0.00089  -0.00007   0.00000  -0.00309  -0.00313  -0.00402
   D50        3.13369   0.00004   0.00000   0.00195   0.00193   3.13562
   D51        0.02310  -0.00014   0.00000  -0.00529  -0.00530   0.01780
   D52       -3.12404  -0.00003   0.00000   0.00059   0.00073  -3.12331
         Item               Value     Threshold  Converged?
 Maximum Force            0.016177     0.000015     NO 
 RMS     Force            0.003084     0.000010     NO 
 Maximum Displacement     0.490555     0.000060     NO 
 RMS     Displacement     0.123245     0.000040     NO 
 Predicted change in Energy=-2.710232D-03
 GradGradGradGradGradGradGradGradGradGradGradGradGradGradGradGradGradGrad

                          Input orientation:                          
 ---------------------------------------------------------------------
 Center     Atomic      Atomic             Coordinates (Angstroms)
 Number     Number       Type             X           Y           Z
 ---------------------------------------------------------------------
      1          8           0        0.248690    0.185150   -2.571169
      2          6           0        0.044971    0.085901   -1.363431
      3          6           0        1.193143   -0.035355   -0.409813
      4          6           0        2.424174    0.531204   -0.769473
      5          6           0        3.526906    0.410128    0.073989
      6          6           0        3.416525   -0.298058    1.274124
      7          6           0        2.199340   -0.881886    1.630456
      8          6           0        1.087289   -0.740619    0.798680
      9          6           0       -1.357171    0.092093   -0.840704
     10          6           0       -1.696284    0.543759    0.440996
     11          6           0       -3.037934    0.560697    0.814198
     12          6           0       -3.988510    0.104604   -0.099681
     13          7           0       -3.691224   -0.338796   -1.331156
     14          6           0       -2.397568   -0.328445   -1.681107
     15          1           0        2.504607    1.059355   -1.713847
     16          1           0        4.474730    0.860163   -0.208007
     17          1           0        4.278311   -0.396406    1.929090
     18          1           0        2.114984   -1.442676    2.557316
     19          1           0        0.145229   -1.203049    1.078216
     20          1           0       -0.929738    0.895993    1.125090
     21          1           0       -3.340811    0.917793    1.794000
     22          1           0       -5.046000    0.091768    0.158729
     23          1           0       -2.173661   -0.673317   -2.686496
 ---------------------------------------------------------------------
                    Distance matrix (angstroms):
                    1          2          3          4          5
     1  O    0.000000
     2  C    1.228814   0.000000
     3  C    2.368982   1.497461   0.000000
     4  C    2.845803   2.492326   1.402064   0.000000
     5  C    4.218314   3.780896   2.424658   1.393594   0.000000
     6  C    5.005492   4.297848   2.801443   2.418413   1.397868
     7  C    4.753657   3.813303   2.427292   2.794107   2.419571
     8  C    3.593908   2.538560   1.403231   2.421549   2.793050
     9  C    2.362617   1.496423   2.589597   3.807422   4.979158
    10  C    3.603424   2.549030   3.067252   4.294597   5.237772
    11  C    4.733249   3.804182   4.444715   5.687135   6.608154
    12  C    4.905977   4.226865   5.192813   6.461667   7.523629
    13  N    4.163542   3.760394   4.979758   6.202458   7.391666
    14  C    2.838780   2.497718   3.820379   4.981894   6.222961
    15  H    2.566787   2.668373   2.149147   1.085014   2.159386
    16  H    4.888720   4.642979   3.407563   2.151333   1.086473
    17  H    6.068639   5.384653   3.888327   3.403017   2.157895
    18  H    5.695105   4.689750   3.410894   3.880634   3.404896
    19  H    3.905869   2.762804   2.162375   3.408105   3.878988
    20  H    3.944150   2.792677   2.780281   3.869259   4.604623
    21  H    5.698770   4.703714   5.130499   6.321067   7.098006
    22  H    5.957752   5.313661   6.266284   7.540435   8.579234
    23  H    2.572557   2.692441   4.114080   5.125030   6.425775
                    6          7          8          9         10
     6  C    0.000000
     7  C    1.396198   0.000000
     8  C    2.418108   1.395874   0.000000
     9  C    5.235732   4.438923   3.058819   0.000000
    10  C    5.248197   4.315456   3.086396   1.400627   0.000000
    11  C    6.527559   5.493301   4.325636   2.404840   1.392692
    12  C    7.542150   6.500464   5.223523   2.733720   2.395724
    13  N    7.570287   6.615500   5.247080   2.423637   2.810554
    14  C    6.522116   5.692478   4.296913   1.401983   2.399137
    15  H    3.406191   3.878913   3.400219   4.075696   4.749386
    16  H    2.158236   3.404714   3.879520   5.916189   6.213109
    17  H    1.086889   2.155688   3.402783   6.298336   6.228492
    18  H    2.156558   1.086586   2.154493   5.094891   4.790667
    19  H    3.399819   2.151159   1.086029   2.759865   2.616975
    20  H    4.509764   3.634196   2.617908   2.166403   1.086115
    21  H    6.885503   5.827423   4.832087   3.399746   2.162173
    22  H    8.544613   7.457140   6.222511   3.821823   3.391839
    23  H    6.861305   6.148391   4.773340   2.158578   3.389745
                   11         12         13         14         15
    11  C    0.000000
    12  C    1.395275   0.000000
    13  N    2.416282   1.342205   0.000000
    14  C    2.725287   2.284631   1.340194   0.000000
    15  H    6.112236   6.758525   6.363144   5.094937   0.000000
    16  H    7.587799   8.497590   8.329572   7.128204   2.487693
    17  H    7.462336   8.526855   8.610808   7.589829   4.305376
    18  H    5.796941   6.834205   7.074660   6.290379   4.965360
    19  H    3.648703   4.492795   4.611983   3.852871   4.298925
    20  H    2.157213   3.388576   3.896621   3.395367   4.458809
    21  H    1.085939   2.160282   3.386503   3.810405   6.818646
    22  H    2.163762   1.088680   2.059262   3.252041   7.839288
    23  H    3.811118   3.254298   2.062002   1.086222   5.082754
                   16         17         18         19         20
    16  H    0.000000
    17  H    2.486912   0.000000
    18  H    4.303310   2.483813   0.000000
    19  H    4.965460   4.296164   2.474892   0.000000
    20  H    5.566570   5.425908   4.097679   2.358756   0.000000
    21  H    8.068087   7.732812   5.993343   4.142800   2.502237
    22  H    9.558725   9.503434   7.706324   5.428708   4.303980
    23  H    7.259171   7.937774   6.817768   4.453193   4.305609
                   21         22         23
    21  H    0.000000
    22  H    2.502818   0.000000
    23  H    4.895785   4.114729   0.000000
 Stoichiometry    C12H9NO
 Framework group  C1[X(C12H9NO)]
 Deg. of freedom    63
 Full point group                 C1      NOp   1
 Largest Abelian subgroup         C1      NOp   1
 Largest concise Abelian subgroup C1      NOp   1
                         Standard orientation:                         
 ---------------------------------------------------------------------
 Center     Atomic      Atomic             Coordinates (Angstroms)
 Number     Number       Type             X           Y           Z
 ---------------------------------------------------------------------
      1          8           0       -0.027246    2.333318   -0.046096
      2          6           0       -0.012574    1.104853   -0.020750
      3          6           0        1.288238    0.363179   -0.034816
      4          6           0        2.422223    0.991255    0.499395
      5          6           0        3.658916    0.349354    0.473774
      6          6           0        3.779243   -0.916592   -0.106690
      7          6           0        2.658727   -1.540695   -0.658331
      8          6           0        1.414419   -0.909848   -0.611476
      9          6           0       -1.300468    0.344600    0.030493
     10          6           0       -1.419705   -0.924676    0.610557
     11          6           0       -2.674670   -1.526726    0.657358
     12          6           0       -3.759682   -0.847156    0.102628
     13          7           0       -3.672966    0.366357   -0.464274
     14          6           0       -2.461814    0.939874   -0.481836
     15          1           0        2.321941    1.983332    0.927158
     16          1           0        4.530782    0.839303    0.898300
     17          1           0        4.745073   -1.414505   -0.130856
     18          1           0        2.752876   -2.519622   -1.120400
     19          1           0        0.548100   -1.397619   -1.048547
     20          1           0       -0.553672   -1.422512    1.036928
     21          1           0       -2.809061   -2.503593    1.112259
     22          1           0       -4.754491   -1.289344    0.109762
     23          1           0       -2.409944    1.928988   -0.927753
 ---------------------------------------------------------------------
 Rotational constants (GHZ):           1.7253877           0.4126232           0.3507561
 Standard basis: 6-31G(d) (6D, 7F)
 There are   228 symmetry adapted cartesian basis functions of A   symmetry.
 There are   228 symmetry adapted basis functions of A   symmetry.
   228 basis functions,   428 primitive gaussians,   228 cartesian basis functions
    48 alpha electrons       48 beta electrons
       nuclear repulsion energy       778.0328350672 Hartrees.
 NAtoms=   23 NActive=   23 NUniq=   23 SFac= 1.00D+00 NAtFMM=   60 NAOKFM=F Big=F
 Integral buffers will be    131072 words long.
 Raffenetti 2 integral format.
 Two-electron integral symmetry is turned on.
 One-electron integrals computed using PRISM.
 NBasis=   228 RedAO= T EigKep=  4.69D-04  NBF=   228
 NBsUse=   228 1.00D-06 EigRej= -1.00D+00 NBFU=   228
 Initial guess from the checkpoint file:  "1.chk"
 B after Tr=    -0.000000   -0.000000   -0.000000
         Rot=    0.999995    0.002371   -0.002203    0.000540 Ang=   0.38 deg.
 ExpMin= 1.61D-01 ExpMax= 5.48D+03 ExpMxC= 8.25D+02 IAcc=2 IRadAn=         4 AccDes= 0.00D+00
 Harris functional with IExCor=  402 and IRadAn=       4 diagonalized for initial guess.
 HarFok:  IExCor=  402 AccDes= 0.00D+00 IRadAn=         4 IDoV= 1 UseB2=F ITyADJ=14
 ICtDFT=  3500011 ScaDFX=  1.000000  1.000000  1.000000  1.000000
 FoFCou: FMM=F IPFlag=           0 FMFlag=      100000 FMFlg1=           0
         NFxFlg=           0 DoJE=T BraDBF=F KetDBF=T FulRan=T
         wScrn=  0.000000 ICntrl=       500 IOpCl=  0 I1Cent=   200000004 NGrid=           0
         NMat0=    1 NMatS0=      1 NMatT0=    0 NMatD0=    1 NMtDS0=    0 NMtDT0=    0
 Petite list used in FoFCou.
 Requested convergence on RMS density matrix=1.00D-08 within 128 cycles.
 Requested convergence on MAX density matrix=1.00D-06.
 Requested convergence on             energy=1.00D-06.
 No special actions if energy rises.
 Integral accuracy reduced to 1.0D-05 until final iterations.
 Initial convergence to 1.0D-05 achieved.  Increase integral accuracy.
 SCF Done:  E(RB3LYP) =  -592.666511253     A.U. after   13 cycles
            NFock= 13  Conv=0.79D-08     -V/T= 2.0096
 Calling FoFJK, ICntrl=      2127 FMM=F ISym2X=0 I1Cent= 0 IOpClX= 0 NMat=1 NMatS=1 NMatT=0.
 ***** Axes restored to original set *****
 -------------------------------------------------------------------
 Center     Atomic                   Forces (Hartrees/Bohr)
 Number     Number              X              Y              Z
 -------------------------------------------------------------------
      1        8          -0.000847561    0.000051718    0.004654424
      2        6           0.001922541    0.000587043   -0.006579814
      3        6          -0.002098598    0.000178908    0.000863809
      4        6           0.002864606   -0.000716024    0.000417902
      5        6          -0.000992932    0.000051333   -0.001045200
      6        6          -0.000123454   -0.000073853    0.000230169
      7        6          -0.000283906    0.000754236   -0.000128744
      8        6           0.002303198   -0.001542389    0.001524442
      9        6           0.001707934   -0.000742992    0.002172111
     10        6          -0.002485068    0.001656496    0.000429898
     11        6           0.000232712   -0.000411893    0.000270320
     12        6          -0.001366753   -0.000976990   -0.001832712
     13        7           0.005052227    0.001059720    0.001610297
     14        6          -0.006902491   -0.000000683   -0.001369755
     15        1          -0.000832709   -0.000089150   -0.000354547
     16        1           0.000016556    0.000122907    0.000134584
     17        1          -0.000014165   -0.000101524   -0.000156520
     18        1          -0.000128647   -0.000099365   -0.000128515
     19        1           0.001159778   -0.000536192   -0.000427461
     20        1          -0.000852422    0.000441276   -0.000831475
     21        1          -0.000338331   -0.000048123   -0.000159969
     22        1           0.000057178    0.000550078    0.000858034
     23        1           0.001950306   -0.000114535   -0.000151276
 -------------------------------------------------------------------
 Cartesian Forces:  Max     0.006902491 RMS     0.001738504

 GradGradGradGradGradGradGradGradGradGradGradGradGradGradGradGradGradGrad
 Berny optimization.
 Using GEDIIS/GDIIS optimizer.
 FormGI is forming the generalized inverse of G from B-inverse, IUseBI=4.
 Internal  Forces:  Max     0.007102843 RMS     0.001553807
 Search for a local minimum.
 Step number   2 out of a maximum of  123
 All quantities printed in internal units (Hartrees-Bohrs-Radians)
 Mixed Optimization -- RFO/linear search
 Update second derivatives using D2CorX and points    1    2
 DE= -2.23D-03 DEPred=-2.71D-03 R= 8.23D-01
 TightC=F SS=  1.41D+00  RLast= 3.58D-01 DXNew= 5.0454D-01 1.0754D+00
 Trust test= 8.23D-01 RLast= 3.58D-01 DXMaxT set to 5.05D-01
 ITU=  1  0
 Use linear search instead of GDIIS.
     Eigenvalues ---    0.01008   0.01019   0.01422   0.01745   0.01819
     Eigenvalues ---    0.02105   0.02120   0.02123   0.02139   0.02143
     Eigenvalues ---    0.02152   0.02152   0.02155   0.02165   0.02216
     Eigenvalues ---    0.02233   0.02242   0.02284   0.02299   0.02473
     Eigenvalues ---    0.14041   0.15994   0.15999   0.15999   0.16000
     Eigenvalues ---    0.16000   0.16000   0.16000   0.16115   0.21876
     Eigenvalues ---    0.21998   0.22007   0.22464   0.23236   0.23454
     Eigenvalues ---    0.24154   0.24977   0.25000   0.29234   0.32816
     Eigenvalues ---    0.34396   0.35026   0.35094   0.35105   0.35120
     Eigenvalues ---    0.35130   0.35192   0.35208   0.35386   0.35472
     Eigenvalues ---    0.41763   0.41916   0.42719   0.43545   0.45698
     Eigenvalues ---    0.45803   0.46238   0.46400   0.46752   0.47199
     Eigenvalues ---    0.50409   0.53897   0.92730
 RFO step:  Lambda=-1.32117853D-03 EMin= 1.00761073D-02
 Quartic linear search produced a step of -0.11644.
 Iteration  1 RMS(Cart)=  0.07607223 RMS(Int)=  0.00107647
 Iteration  2 RMS(Cart)=  0.00174717 RMS(Int)=  0.00013853
 Iteration  3 RMS(Cart)=  0.00000142 RMS(Int)=  0.00013853
 Iteration  4 RMS(Cart)=  0.00000000 RMS(Int)=  0.00013853
 Variable       Old X    -DE/DX   Delta X   Delta X   Delta X     New X
                                 (Linear)    (Quad)   (Total)
    R1        2.32212  -0.00471  -0.00019  -0.00380  -0.00399   2.31813
    R2        2.82979   0.00219  -0.00303   0.01712   0.01408   2.84388
    R3        2.82783   0.00311  -0.00403   0.02309   0.01907   2.84690
    R4        2.64952   0.00096  -0.00054   0.00399   0.00347   2.65299
    R5        2.65172   0.00146  -0.00065   0.00546   0.00484   2.65656
    R6        2.63351  -0.00136   0.00040  -0.00415  -0.00375   2.62976
    R7        2.05038   0.00020   0.00073  -0.00225  -0.00152   2.04886
    R8        2.64159  -0.00009  -0.00068   0.00222   0.00150   2.64309
    R9        2.05314   0.00003   0.00018  -0.00061  -0.00043   2.05271
   R10        2.63843  -0.00029  -0.00021   0.00017  -0.00008   2.63835
   R11        2.05392  -0.00010   0.00015  -0.00081  -0.00066   2.05326
   R12        2.63782  -0.00058   0.00012  -0.00148  -0.00135   2.63647
   R13        2.05335  -0.00005   0.00020  -0.00087  -0.00067   2.05268
   R14        2.05230  -0.00089   0.00018  -0.00291  -0.00273   2.04957
   R15        2.64680   0.00151  -0.00091   0.00660   0.00572   2.65252
   R16        2.64936   0.00158  -0.00287   0.01381   0.01096   2.66033
   R17        2.63181   0.00021   0.00025  -0.00031  -0.00006   2.63175
   R18        2.05246  -0.00098   0.00003  -0.00256  -0.00253   2.04993
   R19        2.63669  -0.00033  -0.00194   0.00662   0.00465   2.64133
   R20        2.05213  -0.00007  -0.00027   0.00085   0.00058   2.05271
   R21        2.53640  -0.00116   0.00183  -0.00898  -0.00719   2.52921
   R22        2.05731   0.00014  -0.00044   0.00202   0.00158   2.05889
   R23        2.53260  -0.00353   0.00360  -0.01958  -0.01597   2.51663
   R24        2.05266   0.00058   0.00029   0.00034   0.00063   2.05329
    A1        2.10056  -0.00345  -0.00224  -0.00364  -0.00589   2.09466
    A2        2.09247  -0.00365  -0.00160  -0.00679  -0.00839   2.08408
    A3        2.09015   0.00710   0.00385   0.01041   0.01425   2.10440
    A4        2.06819  -0.00408  -0.00015  -0.01450  -0.01492   2.05327
    A5        2.13093   0.00547  -0.00090   0.02197   0.02072   2.15165
    A6        2.08317  -0.00142   0.00107  -0.00918  -0.00826   2.07492
    A7        2.09948   0.00095  -0.00053   0.00578   0.00529   2.10477
    A8        2.07722  -0.00138   0.00241  -0.01602  -0.01364   2.06358
    A9        2.10647   0.00043  -0.00188   0.01027   0.00836   2.11483
   A10        2.09574  -0.00001  -0.00020   0.00013  -0.00007   2.09566
   A11        2.09120   0.00009   0.00022  -0.00009   0.00014   2.09133
   A12        2.09621  -0.00007  -0.00003  -0.00004  -0.00006   2.09615
   A13        2.09416  -0.00005   0.00032  -0.00199  -0.00171   2.09245
   A14        2.09509  -0.00002  -0.00033   0.00139   0.00108   2.09617
   A15        2.09393   0.00006   0.00000   0.00058   0.00060   2.09453
   A16        2.09454   0.00029   0.00018   0.00037   0.00056   2.09511
   A17        2.09577   0.00003  -0.00044   0.00210   0.00165   2.09742
   A18        2.09286  -0.00032   0.00026  -0.00246  -0.00221   2.09065
   A19        2.09897   0.00024  -0.00086   0.00459   0.00379   2.10275
   A20        2.09568   0.00020   0.00227  -0.00767  -0.00545   2.09023
   A21        2.08816  -0.00045  -0.00139   0.00276   0.00130   2.08946
   A22        2.15059   0.00572  -0.00034   0.02064   0.01996   2.17055
   A23        2.07682  -0.00409  -0.00027  -0.01419  -0.01472   2.06209
   A24        2.05511  -0.00165   0.00062  -0.00787  -0.00740   2.04771
   A25        2.07417   0.00031   0.00084  -0.00079   0.00011   2.07428
   A26        2.10607  -0.00004   0.00149  -0.00633  -0.00488   2.10119
   A27        2.10270  -0.00027  -0.00233   0.00694   0.00456   2.10726
   A28        2.06783   0.00006  -0.00006   0.00095   0.00089   2.06872
   A29        2.11118   0.00035   0.00019   0.00098   0.00117   2.11235
   A30        2.10417  -0.00041  -0.00013  -0.00192  -0.00206   2.10211
   A31        2.16281  -0.00087  -0.00042  -0.00245  -0.00291   2.15990
   A32        2.10616  -0.00059   0.00084  -0.00676  -0.00592   2.10024
   A33        2.01421   0.00145  -0.00042   0.00919   0.00878   2.02299
   A34        2.03849   0.00183  -0.00011   0.00559   0.00549   2.04397
   A35        2.16773   0.00033  -0.00089   0.00444   0.00359   2.17133
   A36        2.09105  -0.00207   0.00298  -0.02231  -0.01937   2.07168
   A37        2.02440   0.00174  -0.00209   0.01787   0.01574   2.04014
    D1        0.48353   0.00034   0.01596  -0.03077  -0.01489   0.46864
    D2       -2.61243   0.00124   0.01518   0.01320   0.02846  -2.58396
    D3       -2.65339   0.00041   0.01591  -0.02511  -0.00928  -2.66267
    D4        0.53384   0.00131   0.01513   0.01886   0.03408   0.56791
    D5       -2.65312   0.00170   0.01011   0.06601   0.07619  -2.57693
    D6        0.44817   0.00074   0.01032   0.02305   0.03330   0.48147
    D7        0.48382   0.00163   0.01016   0.06038   0.07062   0.55443
    D8       -2.69807   0.00067   0.01037   0.01742   0.02773  -2.67035
    D9       -3.11220   0.00013  -0.00246   0.02327   0.02034  -3.09186
   D10        0.02449   0.00033  -0.00214   0.02937   0.02680   0.05129
   D11       -0.01497  -0.00056  -0.00174  -0.01862  -0.02025  -0.03522
   D12        3.12173  -0.00036  -0.00142  -0.01253  -0.01380   3.10793
   D13        3.08985  -0.00034   0.00486  -0.03342  -0.02892   3.06093
   D14       -0.02221  -0.00007   0.00404  -0.02068  -0.01694  -0.03915
   D15       -0.00573   0.00064   0.00410   0.01104   0.01510   0.00937
   D16       -3.11779   0.00091   0.00328   0.02379   0.02708  -3.09071
   D17        0.01940   0.00017  -0.00095   0.01286   0.01187   0.03127
   D18       -3.13160   0.00022  -0.00082   0.01299   0.01220  -3.11940
   D19       -3.11722  -0.00002  -0.00128   0.00674   0.00528  -3.11193
   D20        0.01498   0.00003  -0.00116   0.00687   0.00561   0.02059
   D21       -0.00305   0.00015   0.00127   0.00068   0.00200  -0.00104
   D22        3.13616  -0.00009  -0.00009  -0.00388  -0.00394   3.13223
   D23       -3.13522   0.00010   0.00115   0.00055   0.00167  -3.13354
   D24        0.00400  -0.00014  -0.00022  -0.00401  -0.00427  -0.00027
   D25       -0.01761  -0.00007   0.00109  -0.00816  -0.00704  -0.02465
   D26        3.12895  -0.00037  -0.00094  -0.01143  -0.01244   3.11651
   D27        3.12636   0.00017   0.00246  -0.00361  -0.00111   3.12526
   D28       -0.01027  -0.00013   0.00043  -0.00688  -0.00650  -0.01677
   D29        0.02200  -0.00033  -0.00378   0.00227  -0.00161   0.02039
   D30        3.13418  -0.00059  -0.00292  -0.01059  -0.01369   3.12049
   D31       -3.12455  -0.00002  -0.00175   0.00555   0.00378  -3.12078
   D32       -0.01237  -0.00028  -0.00089  -0.00732  -0.00831  -0.02068
   D33        3.09577  -0.00041   0.00404  -0.03273  -0.02907   3.06670
   D34       -0.02206  -0.00019   0.00373  -0.02420  -0.02078  -0.04284
   D35       -0.00599   0.00060   0.00385   0.00987   0.01366   0.00766
   D36       -3.12382   0.00082   0.00354   0.01840   0.02195  -3.10187
   D37       -3.11641   0.00017  -0.00292   0.02589   0.02249  -3.09392
   D38        0.02468   0.00053  -0.00217   0.03576   0.03316   0.05784
   D39       -0.01291  -0.00057  -0.00274  -0.01404  -0.01670  -0.02961
   D40        3.12818  -0.00021  -0.00200  -0.00417  -0.00603   3.12215
   D41        0.01834  -0.00032  -0.00296  -0.00039  -0.00344   0.01490
   D42       -3.12573  -0.00004  -0.00161   0.00408   0.00248  -3.12325
   D43        3.13621  -0.00053  -0.00260  -0.00909  -0.01190   3.12432
   D44       -0.00786  -0.00025  -0.00125  -0.00463  -0.00597  -0.01383
   D45       -0.01390  -0.00006   0.00085  -0.00678  -0.00587  -0.01976
   D46        3.12975   0.00023   0.00147   0.00229   0.00379   3.13354
   D47        3.13017  -0.00034  -0.00050  -0.01123  -0.01176   3.11841
   D48       -0.00937  -0.00004   0.00013  -0.00217  -0.00210  -0.01148
   D49       -0.00402   0.00012   0.00036   0.00334   0.00374  -0.00029
   D50        3.13562  -0.00017  -0.00022  -0.00530  -0.00555   3.13007
   D51        0.01780   0.00022   0.00062   0.00741   0.00797   0.02577
   D52       -3.12331  -0.00013  -0.00009  -0.00211  -0.00251  -3.12582
         Item               Value     Threshold  Converged?
 Maximum Force            0.007103     0.000015     NO 
 RMS     Force            0.001554     0.000010     NO 
 Maximum Displacement     0.236057     0.000060     NO 
 RMS     Displacement     0.076394     0.000040     NO 
 Predicted change in Energy=-7.361977D-04
 GradGradGradGradGradGradGradGradGradGradGradGradGradGradGradGradGradGrad

                          Input orientation:                          
 ---------------------------------------------------------------------
 Center     Atomic      Atomic             Coordinates (Angstroms)
 Number     Number       Type             X           Y           Z
 ---------------------------------------------------------------------
      1          8           0        0.240593    0.216108   -2.514270
      2          6           0        0.037932    0.096480   -1.310354
      3          6           0        1.198363   -0.029920   -0.360517
      4          6           0        2.420150    0.545067   -0.744657
      5          6           0        3.548452    0.413960    0.059280
      6          6           0        3.482812   -0.326934    1.243775
      7          6           0        2.282848   -0.933934    1.619129
      8          6           0        1.143717   -0.777056    0.829043
      9          6           0       -1.377854    0.090969   -0.795474
     10          6           0       -1.768370    0.596799    0.454277
     11          6           0       -3.122738    0.615820    0.778045
     12          6           0       -4.038200    0.112268   -0.150407
     13          7           0       -3.691724   -0.370844   -1.349520
     14          6           0       -2.395772   -0.361899   -1.656062
     15          1           0        2.457965    1.092256   -1.679895
     16          1           0        4.482223    0.881420   -0.239855
     17          1           0        4.365742   -0.436877    1.867404
     18          1           0        2.232668   -1.529707    2.526012
     19          1           0        0.219359   -1.267023    1.115082
     20          1           0       -1.028427    0.993055    1.141447
     21          1           0       -3.465727    1.014975    1.728293
     22          1           0       -5.104010    0.105924    0.075545
     23          1           0       -2.120001   -0.740907   -2.636321
 ---------------------------------------------------------------------
                    Distance matrix (angstroms):
                    1          2          3          4          5
     1  O    0.000000
     2  C    1.226701   0.000000
     3  C    2.369916   1.504915   0.000000
     4  C    2.826696   2.489218   1.403901   0.000000
     5  C    4.195740   3.781593   2.428205   1.391607   0.000000
     6  C    4.992973   4.309299   2.807255   2.417333   1.398664
     7  C    4.751672   3.831876   2.431532   2.791735   2.419030
     8  C    3.602742   2.561806   1.405793   2.419468   2.791740
     9  C    2.364168   1.506513   2.615472   3.825392   5.010332
    10  C    3.604599   2.574290   3.139772   4.357043   5.334609
    11  C    4.723464   3.823737   4.514999   5.748673   6.712835
    12  C    4.889448   4.237992   5.242705   6.500057   7.595544
    13  N    4.142979   3.759024   5.000730   6.209651   7.417600
[...]
 2,0.00010881,0.00004293,-0.00007428,-0.00006342,0.00004472,-0.00018148
 ,0.00029202,0.00005313,-0.00003755,-0.05717029,-0.09902043,-0.05394000
 ,0.00303215,-0.00254269,-0.02497600,-0.01073603,-0.01159424,-0.0015406
 1,0.01708037,0.00590034,0.00263429,-0.00721759,-0.07545820,-0.01923229
 ,0.03822448,0.24307872,0.00082461,-0.00076118,-0.00894267,-0.00030529,
 0.00526201,0.02394128,0.00324067,-0.00140164,-0.00222355,0.00040668,-0
 .00037136,0.00081294,0.00011678,0.00031496,0.00007086,0.00005414,-0.00
 007235,0.00011427,0.00019523,0.00035174,0.00013594,0.00019441,-0.00009
 426,0.00009250,-0.09635702,-0.05803934,-0.19917555,-0.01056370,-0.0201
 9819,-0.03794158,-0.01047138,0.00019323,-0.00499183,0.05003251,-0.0019
 4005,-0.01707019,0.07319575,-0.01815252,-0.13178602,-0.06629707,0.1960
 6164,0.67508041,0.00046625,0.00104626,-0.00186267,-0.00017047,-0.00013
 284,0.00405363,0.00239197,-0.01368068,0.02434268,-0.05974736,-0.010739
 76,0.01256365,0.00616970,0.01312332,-0.02314504,-0.00367143,-0.0012993
 8,-0.00328195,-0.00103643,-0.00005624,-0.00017662,-0.00495708,-0.00282
 417,-0.00001254,0.00031506,-0.00017596,-0.00040634,0.00014882,0.000041
 12,0.00016207,0.00007908,0.00000381,-0.00003715,0.00000476,-0.00002408
 ,-0.00003189,0.00005824,-0.00000331,-0.00004680,-0.00003146,0.00003333
 ,-0.00003032,0.05891867,0.00081382,0.00041734,-0.00132860,0.00129560,-
 0.00273881,-0.00022408,0.00043769,-0.00239357,0.01168997,-0.01257603,-
 0.11180874,0.12898519,-0.00100681,0.00261490,0.00160489,-0.00099869,0.
 00593728,0.00272595,0.00004150,-0.00020537,-0.00037728,-0.00347405,0.0
 0391984,0.00198061,0.00012262,0.00025210,-0.00007934,0.00005005,0.0000
 4675,0.00010368,0.00006096,-0.00004149,-0.00002509,-0.00001197,-0.0000
 1505,-0.00001821,0.00004547,-0.00003698,0.00002597,0.00004274,0.000077
 41,-0.00009456,0.01397158,0.10757881,-0.00228922,-0.00044319,0.0005559
 4,-0.00046208,-0.00132317,-0.00304855,0.00226873,0.00470566,-0.0040117
 7,0.01316061,0.13010710,-0.27105682,0.00286064,0.00804081,-0.01010848,
 -0.00370226,0.00217730,0.00130281,-0.00026295,-0.00048975,0.00042364,0
 .00080404,0.00210907,0.00199049,0.00027097,0.00001477,0.00003329,0.000
 07658,0.00002285,0.00008556,0.00002538,-0.00001673,-0.00001904,-0.0000
 1678,-0.00000545,-0.00000424,0.00007045,0.00000940,0.00002757,-0.00000
 717,-0.00000201,-0.00010594,-0.01334024,-0.14326196,0.28499946,0.00008
 168,0.00010518,-0.00047199,-0.00033384,-0.00071606,0.00155505,-0.00178
 959,-0.00008094,-0.00491042,-0.01836887,-0.01073962,0.00906199,-0.2728
 1978,-0.10137248,0.06638979,0.00211832,0.00048425,-0.00107106,0.001866
 21,-0.00104678,-0.00056442,0.00033586,0.00049178,-0.00060846,-0.000246
 99,0.00011710,-0.00035747,-0.00000231,-0.00001172,-0.00006521,-0.00004
 888,-0.00003134,-0.00000516,0.00002561,0.00000618,0.00001130,-0.000111
 29,-0.00004353,-0.00001995,-0.00003788,0.00006567,0.00015467,0.0007712
 2,0.00112389,0.00044172,0.28809198,-0.00021898,0.00000545,-0.00012572,
 0.00037031,0.00037970,0.00004436,-0.00068466,0.00561633,0.00332655,0.0
 0435021,0.00445913,-0.00110922,-0.10121121,-0.08690106,0.04067759,-0.0
 1459868,-0.00315625,0.00307133,-0.00044723,0.00382998,0.00527682,0.000
 48507,-0.00017920,0.00013559,-0.00012479,-0.00017643,0.00000858,-0.000
 00494,-0.00003954,-0.00006249,0.00002461,0.00003467,-0.00001584,0.0000
 0456,-0.00000393,-0.00002611,-0.00003478,0.00000040,0.00000152,0.00002
 653,0.00002343,0.00002570,0.00082530,-0.00284026,-0.00191487,0.1107099
 7,0.08230977,0.00008532,0.00005742,-0.00015230,-0.00072380,-0.00030286
 ,0.00082886,-0.00376128,0.00319610,-0.00029325,-0.01743364,-0.00839770
 ,0.00929274,0.06623010,0.04081781,-0.07738705,0.02587104,0.01029021,-0
 .00330106,-0.00161811,0.00511379,-0.00291480,-0.00061935,0.00020100,-0
 .00101501,-0.00024650,-0.00000291,-0.00023277,-0.00000858,-0.00005349,
 -0.00005968,0.00000759,0.00000580,0.00001090,0.00000033,-0.00000171,-0
 .00001691,-0.00004353,-0.00003241,-0.00000630,-0.00004993,0.00005049,0
 .00006265,0.00099707,-0.00194366,-0.00013712,-0.07040896,-0.04706969,0
 .07571180,-0.00002309,-0.00001864,-0.00014833,0.00011752,0.00024330,0.
 00029731,0.00004367,-0.00028456,0.00078948,0.00162108,-0.00160392,0.00
 024848,0.00578351,-0.00099665,0.00296718,-0.24100050,0.01985275,-0.133
 24820,-0.01736926,0.00469377,-0.01806449,-0.00295256,-0.00411337,0.002
 07301,-0.00009326,-0.00000121,-0.00003740,-0.00001509,0.00003447,-0.00
 003665,0.00001038,-0.00000024,-0.00003984,0.00001547,-0.00001160,-0.00
 001636,-0.00007812,0.00000518,0.00001144,0.00006770,0.00002431,0.00007
 137,0.00014437,-0.00008077,0.00022786,0.00055513,0.00105831,0.00016941
 ,0.25336566,0.00001369,0.00021247,-0.00014404,0.00017493,-0.00092965,-
 0.00049607,-0.00040724,-0.00086705,0.00036324,-0.00212269,0.00364057,0
 .00531935,0.01408842,0.00212423,0.00885924,0.01993221,-0.04782312,0.02
 733974,-0.01055216,0.00509577,-0.00824367,-0.00349712,0.00430744,0.003
 68609,0.00013536,0.00007882,0.00006299,0.00000640,0.00001344,0.0000673
 4,-0.00002261,-0.00000810,-0.00001142,0.00000689,0.00001476,0.00003245
 ,0.00004419,-0.00002916,-0.00001504,-0.00002650,0.00001775,-0.00006003
 ,0.00075256,-0.00006653,0.00038110,0.00071393,-0.00237542,-0.00207140,
 -0.01988224,0.03892240,-0.00028315,0.00001649,-0.00001862,0.00029582,-
 0.00051449,-0.00036172,0.00085144,0.00007959,-0.00033583,0.00105289,0.
 00568791,-0.00247601,-0.02376038,0.00155977,-0.01083946,-0.13326948,0.
 02724257,-0.14976271,0.00864651,-0.00097283,0.00907539,0.00127760,0.00
 355362,0.00182672,0.00001086,0.00004162,0.00001402,0.00000989,-0.00000
 236,0.00000309,-0.00004422,-0.00001511,-0.00000757,0.00001169,0.000017
 66,0.00003123,-0.00000350,-0.00002490,-0.00001181,-0.00002764,0.000011
 91,0.00000041,-0.00112112,0.00001566,-0.00051660,0.00078400,-0.0018879
 9,-0.00002414,0.14489161,-0.03277156,0.15335078,-0.00047620,0.00002185
 ,-0.00067800,0.00113029,0.00062571,-0.00051232,-0.00394983,-0.00117479
 ,-0.00308813,-0.00120439,-0.00010872,-0.00009048,-0.00452550,-0.003041
 54,-0.00017966,0.00279621,-0.01487456,0.02551820,-0.06007046,-0.014786
 27,0.01330526,0.00573929,0.01480632,-0.02327137,-0.00007827,-0.0000751
 3,-0.00004061,-0.00002051,-0.00003284,-0.00006256,-0.00001721,-0.00000
 174,0.00000926,-0.00001159,0.00000005,-0.00000740,-0.00004447,-0.00000
 430,0.00001998,-0.00000158,0.00000795,0.00004330,0.00009322,0.00025673
 ,0.00012829,0.00003196,-0.00078947,0.00132659,0.00075971,0.00121382,0.
 00016335,0.05903856,0.00030511,-0.00026806,0.00018215,-0.00055785,0.00
 051025,0.00006692,-0.00046652,0.00566101,0.00230225,-0.00036945,-0.000
 08097,-0.00067301,-0.00360645,0.00451678,0.00253389,0.00108834,-0.0033
 7913,0.01039465,-0.01524307,-0.11836896,0.13381372,-0.00069039,0.00062
 237,0.00214913,0.00008262,-0.00003288,0.00002296,0.00005595,0.00000910
 ,0.00007197,-0.00001016,0.00000238,0.00000507,0.00000159,0.00000961,0.
 00001554,0.00004379,-0.00000105,-0.00002593,-0.00001412,-0.00001363,-0
 .00003750,0.00026593,-0.00087208,-0.00041575,0.00001498,-0.00005061,0.
 00068903,0.00085847,-0.00244380,-0.00200484,0.01715084,0.11667027,-0.0
 0031990,-0.00009974,-0.00064593,0.00125605,0.00063273,0.00027401,-0.00
 452303,0.00240122,0.00125180,-0.00024601,-0.00047949,0.00034881,0.0009
 3750,0.00279597,0.00278604,-0.00107570,0.00337966,-0.00383014,0.013092
 50,0.13363751,-0.25740149,0.00338420,0.00910372,-0.01167643,-0.0001244
 3,-0.00006624,-0.00003935,-0.00001195,-0.00001124,-0.00006117,-0.00004
 602,-0.00001655,-0.00001464,0.00000603,0.00000808,0.00000687,-0.000087
 15,-0.00001548,0.00000868,0.00003078,0.00002544,0.00008895,0.00014458,
 -0.00048078,-0.00031369,-0.00015480,0.00024854,-0.00020097,0.00077737,
 -0.00189503,-0.00029186,-0.01349689,-0.14714796,0.26997546,0.00029776,
 -0.00012247,0.00074337,-0.00083733,0.00095081,-0.00061331,0.00216112,-
 0.00056004,0.00100338,0.00175210,-0.00084646,-0.00063781,0.00026589,0.
 00051083,-0.00060859,-0.00187226,0.00009508,-0.00465573,-0.01761381,-0
 .01142282,0.00899124,-0.26864342,-0.10709817,0.06426671,-0.00049881,0.
 00042423,-0.00093891,-0.00136188,0.00176050,0.00002285,0.00006945,0.00
 023108,-0.00009219,-0.00011840,-0.00025285,-0.00022755,-0.00029495,0.0
 0025628,0.00014225,0.00049283,-0.00012381,0.00021454,0.00006367,-0.000
 09266,-0.00024946,-0.00010845,0.00020550,0.00020764,-0.00095563,-0.000
 53843,0.00051732,0.00079326,0.00109195,0.00043871,0.28699172,0.0002416
 0,0.00059008,-0.00056084,-0.00014458,-0.00265692,-0.00196688,-0.014769
 14,-0.00355998,0.00248782,-0.00039875,0.00321115,0.00521681,0.00052742
 ,-0.00046438,0.00026024,-0.00014482,0.00546912,0.00320071,0.00433457,0
 .00507095,-0.00100568,-0.10685886,-0.09308649,0.04292173,0.00057728,0.
 00031701,0.00060120,0.00063560,-0.00008566,0.00047878,0.00012261,-0.00
 003706,-0.00026304,0.00009086,-0.00000146,-0.00000207,-0.00011249,-0.0
 0017482,-0.00002911,0.00022381,0.00024576,-0.00012637,-0.00101642,0.00
 020226,0.00029103,0.00019200,-0.00089832,-0.00055948,0.00027062,0.0001
 2635,-0.00003611,0.00076039,-0.00248110,-0.00204177,0.11524527,0.08929
 957,-0.00052097,0.00029478,-0.00049203,0.00261914,-0.00178189,0.000378
 93,0.02409806,0.01014692,-0.00372766,-0.00176810,0.00502637,-0.0031829
 5,-0.00048171,0.00008358,-0.00066088,-0.00367622,0.00350796,-0.0002760
 8,-0.01720887,-0.00841728,0.00929781,0.06414220,0.04217275,-0.07636656
 ,-0.00011050,0.00009729,0.00007512,-0.00024353,0.00014191,0.00036652,-
 0.00025356,-0.00003296,0.00003391,0.00004571,0.00018817,0.00025968,0.0
 0035335,-0.00008582,-0.00025421,-0.00061668,-0.00019959,-0.00024437,0.
 00130440,0.00076726,-0.00007493,0.00024197,-0.00062474,-0.00017539,-0.
 00091816,-0.00037973,0.00034664,0.00091958,-0.00196694,-0.00025574,-0.
 06812187,-0.04878807,0.07474194,0.00018903,0.00007213,-0.00047460,0.00
 018911,0.00039227,0.00044730,-0.00051894,0.00012847,0.00056338,0.00016
 403,-0.00021012,-0.00008564,-0.00009077,0.00008026,-0.00002212,-0.0000
 5215,-0.00009274,-0.00001368,-0.00019197,0.00015904,0.00003447,-0.0009
 4435,0.00147249,-0.00029573,0.01070600,0.00312335,0.00505214,-0.190285
 36,-0.07178198,-0.12105771,-0.01550068,-0.01167724,-0.02137904,-0.0048
 3105,0.00003352,0.00377755,-0.00010787,0.00052895,0.00027131,0.0003915
 1,0.00031698,0.00272520,0.00000506,-0.00000907,-0.00001164,0.00000677,
 0.00005028,0.00002419,0.00001655,-0.00003159,-0.00000378,0.00002371,-0
 .00001383,0.00002741,-0.00060226,0.00031436,0.00011758,0.20065775,-0.0
 0032572,0.00043120,0.00092174,0.00043150,-0.00327853,0.00125931,0.0008
 1548,0.00046553,-0.00056366,-0.00008983,0.00008657,0.00026373,-0.00000
 993,-0.00010692,0.00002322,0.00001223,-0.00001281,0.00002920,0.0000913
 9,-0.00003661,0.00023939,0.00049780,0.00004786,-0.00014306,-0.00912273
 ,0.00025157,-0.00615204,-0.07092970,-0.08040066,-0.07231827,0.00035682
 ,0.00495472,-0.00046872,-0.00021929,0.00795717,-0.00244437,0.00056914,
 -0.00357625,0.00128180,0.00090217,0.00656183,-0.00434304,-0.00005500,-
 0.00001933,0.00001709,0.00000160,-0.00003226,0.00000817,-0.00004775,-0
 .00000977,-0.00000656,0.00001814,0.00000853,-0.00000515,0.00032954,-0.
 00104469,-0.00013985,0.07684874,0.07166793,0.00077368,-0.00005069,-0.0
 0051620,-0.00300888,0.00141638,0.00043705,-0.00000670,0.00008821,0.000
 22299,0.00065326,0.00012436,0.00003279,-0.00019946,0.00013145,-0.00033
 199,-0.00023669,-0.00026516,0.00017263,0.00026741,0.00008530,0.0002614
 0,-0.00022334,0.00049136,0.00018756,-0.01981440,-0.00982698,-0.0138583
 6,-0.12078912,-0.07186400,-0.17298719,0.00678786,0.00284954,0.01019307
 ,0.00272090,-0.00285684,0.00172931,0.00012777,0.00158261,-0.00047962,0
 .00393628,-0.00437369,-0.00334824,-0.00002947,-0.00003362,-0.00001775,
 -0.00001779,0.00001807,0.00001222,-0.00002434,-0.00001764,-0.00000974,
 -0.00001804,0.00003760,-0.00002462,-0.00040714,-0.00003270,0.00024527,
 0.13095736,0.08082882,0.17844778,-0.00081377,-0.00020025,0.00060130,0.
 00136650,0.00067976,0.00097065,-0.00015876,-0.00011444,-0.00001251,0.0
 0001541,0.00002964,-0.00007968,-0.00001086,0.00000707,-0.00002437,-0.0
 0002664,-0.00000234,-0.00001180,-0.00001728,-0.00000764,-0.00000542,-0
 .00006199,-0.00004655,0.00004149,-0.00570539,-0.00119683,0.00044093,-0
 .00478746,0.01165166,0.02896307,-0.08693936,0.02715599,0.07844936,0.01
 263565,-0.00692285,-0.01962045,-0.00209528,-0.00260113,-0.00364028,-0.
 00199081,-0.00029012,-0.00029943,0.00002949,0.00001691,0.00001384,-0.0
 0001454,0.00000189,-0.00000481,-0.00000622,0.00000321,-0.00000340,-0.0
 0001822,0.00001839,-0.00001570,0.00002196,0.00000583,0.00004048,0.0011
 9835,0.00035682,-0.00059391,0.08669694,0.00025673,-0.00023673,-0.00002
 471,-0.00030834,0.00071212,-0.00012148,0.00003269,-0.00006994,-0.00000
 628,-0.00000973,-0.00001346,0.00001862,0.00000034,-0.00000347,0.000012
 96,0.00000666,0.00000393,0.00000175,-0.00001431,0.00000834,-0.00000843
 ,0.00007154,-0.00000072,-0.00003223,-0.00102488,0.00711741,-0.00190613
 ,-0.00038810,0.00248843,0.00136390,0.02694015,-0.07259253,-0.09487269,
 0.00608360,-0.00247829,-0.00784660,-0.00237438,0.00606466,-0.00431356,
 -0.00106366,-0.00007317,0.00048652,-0.00000930,-0.00000662,-0.00000013
 ,-0.00000081,0.00000164,0.00000250,0.00000090,-0.00000166,0.00000059,0
 .00001231,-0.00000769,0.00000742,0.00000375,0.00001267,-0.00002623,0.0
 0061169,-0.00320370,0.00170536,-0.02934210,0.06618818,0.00020381,0.000
 12587,-0.00020832,-0.00089788,-0.00033708,0.00013868,0.00010211,0.0000
 1239,0.00001103,-0.00001886,-0.00001999,0.00005330,0.00000630,-0.00000
 356,0.00001793,0.00001234,-0.00000052,0.00000708,0.00002163,0.00001467
 ,-0.00000837,0.00003021,0.00000540,-0.00001938,0.00165759,-0.00214657,
 0.00278661,0.00020919,-0.00171089,-0.00212966,0.07848389,-0.09456194,-
 0.27899303,0.01073722,-0.00474143,-0.01381416,-0.00328209,-0.00421076,
 -0.00099942,-0.00127812,0.00024759,0.00081648,-0.00001440,-0.00000886,
 -0.00000882,0.00001410,0.,0.00000132,0.00000822,-0.00000188,0.00000388
 ,0.00000496,-0.00000471,0.00001147,-0.00000663,0.00001904,-0.00002316,
 0.00006085,0.00173972,0.00005470,-0.08561241,0.10368599,0.29255982,-0.
 00013655,-0.00006334,0.00003369,0.00018637,0.00018931,-0.00017077,-0.0
 0012066,-0.00001070,0.00001009,0.00002429,0.00002447,-0.00005856,-0.00
 001405,0.00000559,-0.00001927,-0.00001298,-0.00000802,0.00000154,-0.00
 000560,-0.00001127,0.00003920,-0.00003345,0.00003944,0.00003291,0.0004
 4660,-0.00001438,-0.00033800,-0.00098788,-0.00239115,-0.00326106,-0.01
 519113,0.00017693,0.00658864,-0.32419698,-0.01331565,0.04773002,-0.004
 35433,0.00411920,0.01049765,0.00240661,-0.00064932,0.00049694,0.000011
 06,0.00000267,0.00000545,-0.00001478,-0.00000096,-0.00000101,-0.000011
 28,-0.00000088,-0.00000541,-0.00000351,0.00000402,-0.00001243,0.000004
 82,-0.00005697,0.00002255,-0.00085257,0.00013178,0.00041278,0.00047441
 ,0.00020576,-0.00051374,0.34259247,-0.00019012,0.00019111,0.00042385,0
 .00064494,-0.00168304,0.00045413,0.00023710,0.00030273,-0.00009079,-0.
 00000577,0.00000545,0.00008987,0.00004077,-0.00001582,0.00000147,0.000
 01812,0.00002125,-0.00002417,-0.00003545,-0.00001891,-0.00001730,0.000
 00217,0.00001080,-0.00005645,-0.00039019,-0.00109674,-0.00041071,-0.00
 172739,0.00544155,-0.00428853,-0.01136439,0.00632603,0.00174506,-0.013
 46709,-0.04516657,-0.00302410,0.01375048,-0.00332527,-0.00377526,0.000
 37447,0.00841806,-0.00470095,-0.00000177,0.00001116,0.00000236,0.00000
 689,-0.00000841,0.00000177,-0.00000250,0.00000368,0.00000223,0.0000001
 8,-0.00000092,0.00000054,-0.00004294,-0.00000015,-0.00000718,-0.000494
 36,-0.00046380,0.00040116,0.00062132,-0.00233942,0.00126347,0.01170059
 ,0.03290722,0.00022936,-0.00005223,-0.00001229,-0.00035523,0.00081000,
 -0.00013661,0.00000412,-0.00012828,0.00001172,0.00002777,-0.00000276,0
 .00000188,-0.00002288,0.00001050,-0.00000107,-0.00000744,-0.00001945,0
 .00002298,0.00003991,0.00001968,0.00003021,-0.00000306,0.00003364,0.00
 001147,0.00056716,0.00022640,-0.00069939,-0.00237241,-0.00420222,-0.00
 189510,-0.02084579,-0.00139286,0.00928586,0.04682081,-0.00330364,-0.06
 323371,0.03470972,-0.00060510,-0.01472151,0.00234043,-0.00499603,-0.00
 260695,-0.00001105,-0.00001361,-0.00000500,0.00000331,0.00000385,0.000
 00113,0.00000210,-0.00000388,0.00000053,0.00000312,-0.00000290,0.00000
 398,0.00000743,-0.00002390,-0.00000467,-0.00117118,0.00019971,0.000257
 97,0.00044977,0.00132631,0.00007437,-0.06145593,0.01224837,0.07366365,
 -0.00061140,0.00034110,0.00149684,0.00079687,0.00013623,-0.00309227,0.
 00014580,-0.00004547,0.00036921,-0.00002101,0.00000831,0.00004857,-0.0
 0002484,-0.00003393,0.00002991,0.00001186,-0.00001361,0.00002717,0.000
 03860,-0.00000935,0.00003967,0.00014862,0.00004217,-0.00007823,0.00873
 126,-0.00816249,-0.01945084,-0.00389568,-0.00205543,-0.00204086,-0.000
 63642,0.00025219,0.00035954,-0.00414381,-0.00105601,0.00236257,-0.0160
 2312,0.01182274,0.03360854,-0.06773144,0.01932243,0.05235741,-0.000056
 42,-0.00003220,-0.00001276,0.00001245,0.00000314,0.00000024,0.00000425
 ,-0.00000417,0.00000909,0.00001554,-0.00001011,0.00001889,-0.00000736,
 -0.00004019,0.00001516,0.00043010,-0.00056322,-0.00126804,0.00020787,0
 .00030947,0.00007170,-0.00021090,0.00032497,0.00103997,0.08281918,-0.0
 0015247,0.00005368,0.00110934,0.00040838,-0.00196305,0.00036158,0.0000
 1516,-0.00006287,0.00023741,-0.00002987,0.00004476,0.00009244,-0.00001
 283,-0.00004683,0.00000843,0.00000185,-0.00001410,0.00002892,0.0000440
 3,-0.00000890,0.00006150,0.00015134,0.00005349,-0.00006916,0.00449882,
 0.00388648,-0.01072599,-0.00279554,0.00490422,-0.00262320,0.00011208,-
 0.00045056,0.00033939,-0.00190850,0.00950185,-0.00298100,0.00297746,-0
 .00163081,0.00455428,0.01697190,-0.07733756,-0.09230246,-0.00004431,-0
 .00001302,-0.00000553,0.00000985,0.00000120,0.00000124,0.00000137,-0.0
 0000340,0.00000712,0.00001506,-0.00000941,0.00001862,-0.00000417,-0.00
 005389,0.00002327,0.00017839,-0.00024756,-0.00043891,0.00017575,-0.001
 56999,0.00063405,-0.00007714,0.00048000,-0.00013161,-0.02053658,0.0644
 8625,0.00157227,0.00055443,0.00229803,0.00173545,0.00117285,-0.0034447
 7,-0.00012669,-0.00002298,0.00016734,-0.00000550,0.00002526,-0.0000233
 5,-0.00002139,-0.00002607,0.00001498,0.00000707,-0.00000424,0.00000698
 ,0.00000839,0.00000169,0.00000881,-0.00000176,0.00003572,0.00000581,0.
 00369387,-0.00769735,-0.01362844,-0.00299220,-0.00275275,-0.00040201,-
 0.00047662,0.00029001,0.00035910,0.00037746,-0.00255125,0.00355586,0.0
 0881200,0.00142423,-0.00265004,0.05297119,-0.09227217,-0.29277982,-0.0
 0002048,-0.00000956,0.00000998,-0.00000220,-0.00000183,-0.00000485,-0.
 00000107,-0.00000017,0.00000340,0.00000358,-0.00000533,-0.00000007,0.0
 0000374,-0.00004135,-0.00000722,0.00045638,-0.00022718,-0.00068103,-0.
 00004670,0.00054656,-0.00033235,-0.00003530,-0.00023882,-0.00004946,-0
 .06591150,0.10180029,0.30757312\\0.00000011,-0.00000011,0.00000019,0.0
 0000022,0.,0.00000009,-0.00000015,-0.00000017,0.00000011,-0.00000027,-
 0.00000008,0.00000007,0.00000019,-0.00000012,0.00000030,0.,-0.00000007
 ,0.00000017,-0.00000052,0.00000001,0.00000006,0.00000007,0.00000002,-0
 .00000002,0.00000020,0.00000015,0.00000010,0.00000020,0.00000002,-0.00
 000043,-0.00000016,0.00000012,-0.00000018,0.,-0.00000007,-0.00000026,0
 .00000036,0.00000026,-0.00000023,-0.00000030,-0.00000019,-0.00000013,0
 .00000020,-0.00000009,0.00000008,0.00000009,-0.00000010,0.00000025,-0.
 00000009,-0.00000007,0.00000031,-0.00000012,0.00000002,0.00000019,-0.0
 0000006,0.00000005,0.00000003,-0.00000008,0.00000005,-0.00000007,-0.00
 000011,0.00000016,-0.00000026,0.00000001,0.00000021,-0.00000027,0.0000
 0021,0.00000002,-0.00000010\\\@


 CHINESE FORTUNE COOKIE OF JAN 1 1967 SAY....
 ALL THINGS ARE DIFFICULT BEFORE THEY ARE EASY.
 WE LEARN SO LITTLE AND FORGET SO MUCH.
 YOU WILL OVERCOME OBSTACLES TO ACHIEVE SUCCESS.
 AH SO.
 Job cpu time:       0 days  0 hours  0 minutes 54.5 seconds.
 Elapsed time:       0 days  0 hours  1 minutes  7.1 seconds.
 File lengths (MBytes):  RWF=    144 Int=      0 D2E=      0 Chk=      8 Scr=      1
 Normal termination of Gaussian 16 at Sat Nov 16 07:21:13 2024.
