 Entering Gaussian System, Link 0=g16
 Input=/Volumes/SSD-PSM960U3-UW/CoMFA_calc/RYMBAPVTUHZCNF-UHFFFAOYSA-N/opt2.gjf
 Output=/Volumes/SSD-PSM960U3-UW/CoMFA_calc/RYMBAPVTUHZCNF-UHFFFAOYSA-N/opt2.log
 Initial command:
 /Applications/g16/l1.exe "/Users/mac_poclab/PycharmProjects/CoMFA_model/Gau-18827.inp" -scrdir="/Users/mac_poclab/PycharmProjects/CoMFA_model/"
 Entering Link 1 = /Applications/g16/l1.exe PID=     18828.
  
 Copyright (c) 1988,1990,1992,1993,1995,1998,2003,2009,2016,
            Gaussian, Inc.  All Rights Reserved.
  
 This is part of the Gaussian(R) 16 program.  It is based on
 the Gaussian(R) 09 system (copyright 2009, Gaussian, Inc.),
 the Gaussian(R) 03 system (copyright 2003, Gaussian, Inc.),
 the Gaussian(R) 98 system (copyright 1998, Gaussian, Inc.),
 the Gaussian(R) 94 system (copyright 1995, Gaussian, Inc.),
 the Gaussian 92(TM) system (copyright 1992, Gaussian, Inc.),
 the Gaussian 90(TM) system (copyright 1990, Gaussian, Inc.),
 the Gaussian 88(TM) system (copyright 1988, Gaussian, Inc.),
 the Gaussian 86(TM) system (copyright 1986, Carnegie Mellon
 University), and the Gaussian 82(TM) system (copyright 1983,
 Carnegie Mellon University). Gaussian is a federally registered
 trademark of Gaussian, Inc.
  
 This software contains proprietary and confidential information,
 including trade secrets, belonging to Gaussian, Inc.
  
 This software is provided under written license and may be
 used, copied, transmitted, or stored only in accord with that
 written license.
  
 The following legend is applicable only to US Government
 contracts under FAR:
  
                    RESTRICTED RIGHTS LEGEND
  
 Use, reproduction and disclosure by the US Government is
 subject to restrictions as set forth in subparagraphs (a)
 and (c) of the Commercial Computer Software - Restricted
 Rights clause in FAR 52.227-19.
  
 Gaussian, Inc.
 340 Quinnipiac St., Bldg. 40, Wallingford CT 06492
  
  
 ---------------------------------------------------------------
 Warning -- This program may not be used in any manner that
 competes with the business of Gaussian, Inc. or will provide
 assistance to any competitor of Gaussian, Inc.  The licensee
 of this program is prohibited from giving any competitor of
 Gaussian, Inc. access to this program.  By using this program,
 the user acknowledges that Gaussian, Inc. is engaged in the
 business of creating and licensing software in the field of
 computational chemistry and represents and warrants to the
 licensee that it is not a competitor of Gaussian, Inc. and that
 it will not use this program in any manner prohibited above.
 ---------------------------------------------------------------
  

 Cite this work as:
 Gaussian 16, Revision A.03,
 M. J. Frisch, G. W. Trucks, H. B. Schlegel, G. E. Scuseria, 
 M. A. Robb, J. R. Cheeseman, G. Scalmani, V. Barone, 
 G. A. Petersson, H. Nakatsuji, X. Li, M. Caricato, A. V. Marenich, 
 J. Bloino, B. G. Janesko, R. Gomperts, B. Mennucci, H. P. Hratchian, 
 J. V. Ortiz, A. F. Izmaylov, J. L. Sonnenberg, D. Williams-Young, 
 F. Ding, F. Lipparini, F. Egidi, J. Goings, B. Peng, A. Petrone, 
 T. Henderson, D. Ranasinghe, V. G. Zakrzewski, J. Gao, N. Rega, 
 G. Zheng, W. Liang, M. Hada, M. Ehara, K. Toyota, R. Fukuda, 
 J. Hasegawa, M. Ishida, T. Nakajima, Y. Honda, O. Kitao, H. Nakai, 
 T. Vreven, K. Throssell, J. A. Montgomery, Jr., J. E. Peralta, 
 F. Ogliaro, M. J. Bearpark, J. J. Heyd, E. N. Brothers, K. N. Kudin, 
 V. N. Staroverov, T. A. Keith, R. Kobayashi, J. Normand, 
 K. Raghavachari, A. P. Rendell, J. C. Burant, S. S. Iyengar, 
 J. Tomasi, M. Cossi, J. M. Millam, M. Klene, C. Adamo, R. Cammi, 
 J. W. Ochterski, R. L. Martin, K. Morokuma, O. Farkas, 
 J. B. Foresman, and D. J. Fox, Gaussian, Inc., Wallingford CT, 2016.
 
 ******************************************
 Gaussian 16:  EM64M-G16RevA.03 25-Dec-2016
                16-Nov-2024 
 ******************************************
 %nprocshared=30
 Will use up to   30 processors via shared memory.
 %mem=30GB
 %chk= 2.chk
 -------------------------------
 # freq opt=tight b3lyp 6-31g(d)
 -------------------------------
 1/7=10,18=20,19=15,26=3,38=1/1,3;
 2/9=110,12=2,17=6,18=5,40=1/2;
 3/5=1,6=6,7=1,11=2,25=1,30=1,71=1,74=-5/1,2,3;
 4//1;
 5/5=2,38=5/2;
 6/7=2,8=2,9=2,10=2,28=1/1;
 7//1,2,3,16;
 1/7=10,18=20,19=15,26=3/3(2);
 2/9=110/2;
 99//99;
 2/9=110/2;
 3/5=1,6=6,7=1,11=2,25=1,30=1,71=1,74=-5/1,2,3;
 4/5=5,16=3,69=1/1;
 5/5=2,38=5/2;
 7//1,2,3,16;
 1/7=10,18=20,19=15,26=3/3(-5);
 2/9=110/2;
 6/7=2,8=2,9=2,10=2,19=2,28=1/1;
 99/9=1/99;
 ---------
 good luck
 ---------
 Symbolic Z-matrix:
 Charge =  0 Multiplicity = 1
 O                     0.157     0.09675  -2.54529 
 C                     0.17163   0.03653  -1.31891 
 C                    -1.11017  -0.10132  -0.58454 
 C                    -1.21906  -0.90076   0.55991 
 C                    -2.44723  -1.01285   1.21492 
 C                    -3.56631  -0.34006   0.72332 
 C                    -3.46496   0.43878  -0.42932 
 C                    -2.24006   0.55367  -1.08776 
 C                     1.46722   0.10862  -0.61102 
 C                     1.61644   0.69787   0.64623 
 C                     2.87878   0.73407   1.23604 
 C                     3.94764   0.18704   0.54277 
 N                     3.83884  -0.37546  -0.68018 
 C                     2.60197  -0.3908   -1.23715 
 H                    -0.36667  -1.45695   0.94115 
 H                    -2.53586  -1.6343    2.10294 
 H                    -4.52312  -0.43314   1.23192 
 H                    -4.34104   0.95055  -0.82023 
 H                    -2.16773   1.15216  -1.99387 
 H                     0.77363   1.14542   1.16517 
 H                     3.0283    1.18619   2.21064 
 H                     4.95022   0.19278   0.96191 
 H                     2.55053  -0.83479  -2.22862 
 

 GradGradGradGradGradGradGradGradGradGradGradGradGradGradGradGradGradGrad
 Berny optimization.
 Initialization pass.
                           ----------------------------
                           !    Initial Parameters    !
                           ! (Angstroms and Degrees)  !
 --------------------------                            --------------------------
 ! Name  Definition              Value          Derivative Info.                !
 --------------------------------------------------------------------------------
 ! R1    R(1,2)                  1.2279         estimate D2E/DX2                !
 ! R2    R(2,3)                  1.4837         estimate D2E/DX2                !
 ! R3    R(2,9)                  1.4781         estimate D2E/DX2                !
 ! R4    R(3,4)                  1.4003         estimate D2E/DX2                !
 ! R5    R(3,8)                  1.3996         estimate D2E/DX2                !
 ! R6    R(4,5)                  1.3964         estimate D2E/DX2                !
 ! R7    R(4,15)                 1.0869         estimate D2E/DX2                !
 ! R8    R(5,6)                  1.3952         estimate D2E/DX2                !
 ! R9    R(5,16)                 1.0875         estimate D2E/DX2                !
 ! R10   R(6,7)                  1.3948         estimate D2E/DX2                !
 ! R11   R(6,17)                 1.0876         estimate D2E/DX2                !
 ! R12   R(7,8)                  1.3954         estimate D2E/DX2                !
 ! R13   R(7,18)                 1.0873         estimate D2E/DX2                !
 ! R14   R(8,19)                 1.0883         estimate D2E/DX2                !
 ! R15   R(9,10)                 1.3965         estimate D2E/DX2                !
 ! R16   R(9,14)                 1.3889         estimate D2E/DX2                !
 ! R17   R(10,11)                1.3938         estimate D2E/DX2                !
 ! R18   R(10,20)                1.0862         estimate D2E/DX2                !
 ! R19   R(11,12)                1.3865         estimate D2E/DX2                !
 ! R20   R(11,21)                1.0847         estimate D2E/DX2                !
 ! R21   R(12,13)                1.3505         estimate D2E/DX2                !
 ! R22   R(12,22)                1.0867         estimate D2E/DX2                !
 ! R23   R(13,14)                1.3566         estimate D2E/DX2                !
 ! R24   R(14,23)                1.0876         estimate D2E/DX2                !
 ! A1    A(1,2,3)              119.2487         estimate D2E/DX2                !
 ! A2    A(1,2,9)              119.1009         estimate D2E/DX2                !
 ! A3    A(3,2,9)              121.65           estimate D2E/DX2                !
 ! A4    A(2,3,4)              121.6526         estimate D2E/DX2                !
 ! A5    A(2,3,8)              118.4249         estimate D2E/DX2                !
 ! A6    A(4,3,8)              119.885          estimate D2E/DX2                !
 ! A7    A(3,4,5)              119.841          estimate D2E/DX2                !
 ! A8    A(3,4,15)             121.1894         estimate D2E/DX2                !
 ! A9    A(5,4,15)             118.9573         estimate D2E/DX2                !
 ! A10   A(4,5,6)              120.0962         estimate D2E/DX2                !
 ! A11   A(4,5,16)             120.0381         estimate D2E/DX2                !
 ! A12   A(6,5,16)             119.8619         estimate D2E/DX2                !
 ! A13   A(5,6,7)              120.1428         estimate D2E/DX2                !
 ! A14   A(5,6,17)             119.9735         estimate D2E/DX2                !
 ! A15   A(7,6,17)             119.8787         estimate D2E/DX2                !
 ! A16   A(6,7,8)              119.9805         estimate D2E/DX2                !
 ! A17   A(6,7,18)             120.092          estimate D2E/DX2                !
 ! A18   A(8,7,18)             119.9259         estimate D2E/DX2                !
 ! A19   A(3,8,7)              120.0309         estimate D2E/DX2                !
 ! A20   A(3,8,19)             120.2013         estimate D2E/DX2                !
 ! A21   A(7,8,19)             119.7677         estimate D2E/DX2                !
 ! A22   A(2,9,10)             123.052          estimate D2E/DX2                !
 ! A23   A(2,9,14)             118.8603         estimate D2E/DX2                !
 ! A24   A(10,9,14)            118.0524         estimate D2E/DX2                !
 ! A25   A(9,10,11)            119.2559         estimate D2E/DX2                !
 ! A26   A(9,10,20)            121.4028         estimate D2E/DX2                !
 ! A27   A(11,10,20)           119.3305         estimate D2E/DX2                !
 ! A28   A(10,11,12)           118.4481         estimate D2E/DX2                !
 ! A29   A(10,11,21)           121.0559         estimate D2E/DX2                !
 ! A30   A(12,11,21)           120.4939         estimate D2E/DX2                !
 ! A31   A(11,12,13)           123.7121         estimate D2E/DX2                !
 ! A32   A(11,12,22)           121.0851         estimate D2E/DX2                !
 ! A33   A(13,12,22)           115.2015         estimate D2E/DX2                !
 ! A34   A(12,13,14)           116.741          estimate D2E/DX2                !
 ! A35   A(9,14,13)            123.7627         estimate D2E/DX2                !
 ! A36   A(9,14,23)            121.2732         estimate D2E/DX2                !
 ! A37   A(13,14,23)           114.9632         estimate D2E/DX2                !
 ! D1    D(1,2,3,4)            142.21           estimate D2E/DX2                !
 ! D2    D(1,2,3,8)            -35.5588         estimate D2E/DX2                !
 ! D3    D(9,2,3,4)            -38.032          estimate D2E/DX2                !
 ! D4    D(9,2,3,8)            144.1992         estimate D2E/DX2                !
 ! D5    D(1,2,9,10)           147.0376         estimate D2E/DX2                !
 ! D6    D(1,2,9,14)           -30.7566         estimate D2E/DX2                !
 ! D7    D(3,2,9,10)           -32.7207         estimate D2E/DX2                !
 ! D8    D(3,2,9,14)           149.4851         estimate D2E/DX2                !
 ! D9    D(2,3,4,5)           -179.428          estimate D2E/DX2                !
 ! D10   D(2,3,4,15)            -0.7155         estimate D2E/DX2                !
 ! D11   D(8,3,4,5)             -1.6911         estimate D2E/DX2                !
 ! D12   D(8,3,4,15)           177.0213         estimate D2E/DX2                !
 ! D13   D(2,3,8,7)            179.5249         estimate D2E/DX2                !
 ! D14   D(2,3,8,19)            -0.3525         estimate D2E/DX2                !
 ! D15   D(4,3,8,7)              1.7155         estimate D2E/DX2                !
 ! D16   D(4,3,8,19)          -178.1619         estimate D2E/DX2                !
 ! D17   D(3,4,5,6)              0.6003         estimate D2E/DX2                !
 ! D18   D(3,4,5,16)           179.8868         estimate D2E/DX2                !
 ! D19   D(15,4,5,6)          -178.1409         estimate D2E/DX2                !
 ! D20   D(15,4,5,16)            1.1457         estimate D2E/DX2                !
 ! D21   D(4,5,6,7)              0.4729         estimate D2E/DX2                !
 ! D22   D(4,5,6,17)           179.6643         estimate D2E/DX2                !
 ! D23   D(16,5,6,7)          -178.8149         estimate D2E/DX2                !
 ! D24   D(16,5,6,17)            0.3765         estimate D2E/DX2                !
 ! D25   D(5,6,7,8)             -0.4513         estimate D2E/DX2                !
 ! D26   D(5,6,7,18)           179.0701         estimate D2E/DX2                !
 ! D27   D(17,6,7,8)          -179.6434         estimate D2E/DX2                !
 ! D28   D(17,6,7,18)           -0.1221         estimate D2E/DX2                !
 ! D29   D(6,7,8,3)             -0.6447         estimate D2E/DX2                !
 ! D30   D(6,7,8,19)           179.2332         estimate D2E/DX2                !
 ! D31   D(18,7,8,3)           179.8332         estimate D2E/DX2                !
 ! D32   D(18,7,8,19)           -0.289          estimate D2E/DX2                !
 ! D33   D(2,9,10,11)         -179.3639         estimate D2E/DX2                !
 ! D34   D(2,9,10,20)           -0.5712         estimate D2E/DX2                !
 ! D35   D(14,9,10,11)          -1.553          estimate D2E/DX2                !
 ! D36   D(14,9,10,20)         177.2397         estimate D2E/DX2                !
 ! D37   D(2,9,14,13)          179.9925         estimate D2E/DX2                !
 ! D38   D(2,9,14,23)           -0.3448         estimate D2E/DX2                !
 ! D39   D(10,9,14,13)           2.0875         estimate D2E/DX2                !
 ! D40   D(10,9,14,23)        -178.2498         estimate D2E/DX2                !
 ! D41   D(9,10,11,12)           0.4071         estimate D2E/DX2                !
 ! D42   D(9,10,11,21)         179.8819         estimate D2E/DX2                !
 ! D43   D(20,10,11,12)       -178.4109         estimate D2E/DX2                !
 ! D44   D(20,10,11,21)          1.0639         estimate D2E/DX2                !
 ! D45   D(10,11,12,13)          0.3775         estimate D2E/DX2                !
 ! D46   D(10,11,12,22)        179.9531         estimate D2E/DX2                !
 ! D47   D(21,11,12,13)       -179.1003         estimate D2E/DX2                !
 ! D48   D(21,11,12,22)          0.4752         estimate D2E/DX2                !
 ! D49   D(11,12,13,14)          0.051          estimate D2E/DX2                !
 ! D50   D(22,12,13,14)       -179.5473         estimate D2E/DX2                !
 ! D51   D(12,13,14,9)          -1.3232         estimate D2E/DX2                !
 ! D52   D(12,13,14,23)        178.9948         estimate D2E/DX2                !
 --------------------------------------------------------------------------------
 Trust Radius=3.00D-01 FncErr=1.00D-07 GrdErr=1.00D-06 EigMax=2.50D+02 EigMin=1.00D-04
 Number of steps in this run=    123 maximum allowed number of steps=    138.
 GradGradGradGradGradGradGradGradGradGradGradGradGradGradGradGradGradGrad

                          Input orientation:                          
 ---------------------------------------------------------------------
 Center     Atomic      Atomic             Coordinates (Angstroms)
 Number     Number       Type             X           Y           Z
 ---------------------------------------------------------------------
      1          8           0        0.156999    0.096750   -2.545287
      2          6           0        0.171626    0.036529   -1.318914
      3          6           0       -1.110169   -0.101315   -0.584544
      4          6           0       -1.219060   -0.900760    0.559911
      5          6           0       -2.447229   -1.012852    1.214924
      6          6           0       -3.566310   -0.340063    0.723320
      7          6           0       -3.464964    0.438781   -0.429315
      8          6           0       -2.240061    0.553670   -1.087762
      9          6           0        1.467219    0.108621   -0.611021
     10          6           0        1.616437    0.697866    0.646229
     11          6           0        2.878784    0.734072    1.236041
     12          6           0        3.947644    0.187040    0.542771
     13          7           0        3.838841   -0.375457   -0.680184
     14          6           0        2.601973   -0.390797   -1.237152
     15          1           0       -0.366672   -1.456953    0.941151
     16          1           0       -2.535856   -1.634300    2.102936
     17          1           0       -4.523122   -0.433141    1.231915
     18          1           0       -4.341037    0.950549   -0.820232
     19          1           0       -2.167727    1.152164   -1.993872
     20          1           0        0.773630    1.145421    1.165165
     21          1           0        3.028304    1.186193    2.210637
     22          1           0        4.950217    0.192775    0.961905
     23          1           0        2.550531   -0.834792   -2.228624
 ---------------------------------------------------------------------
                    Distance matrix (angstroms):
                    1          2          3          4          5
     1  O    0.000000
     2  C    1.227938   0.000000
     3  C    2.342959   1.483677   0.000000
     4  C    3.539890   2.518432   1.400267   0.000000
     5  C    4.706634   3.792089   2.420065   1.396426   0.000000
     6  C    4.973694   4.276062   2.792873   2.418815   1.395228
     7  C    4.208674   3.765366   2.420921   2.795894   2.417963
     8  C    2.842367   2.477317   1.399603   2.423352   2.792718
     9  C    2.336280   1.478131   2.586059   3.099359   4.462587
    10  C    3.560488   2.527179   3.096429   3.256240   4.445599
    11  C    4.702418   3.787224   4.463647   4.463424   5.605230
    12  C    4.890117   4.212699   5.189938   5.280003   6.541096
    13  N    4.154221   3.745153   4.957520   5.234132   6.596392
    14  C    2.815460   2.468983   3.780171   4.253209   5.647484
    15  H    3.852723   2.761910   2.172162   1.086858   2.144970
    16  H    5.643933   4.672385   3.406637   2.157072   1.087482
    17  H    6.037514   5.363579   3.880448   3.403980   2.155385
    18  H    4.892557   4.631225   3.405947   3.883153   3.403427
    19  H    2.611955   2.678205   2.162370   3.411198   3.880952
    20  H    3.904792   2.786162   2.857364   2.919589   3.877441
    21  H    5.661280   4.684022   5.157293   5.012023   5.984038
    22  H    5.940080   5.297309   6.261491   6.278328   7.499317
    23  H    2.587864   2.691832   4.079425   4.689360   6.071848
                    6          7          8          9         10
     6  C    0.000000
     7  C    1.394789   0.000000
     8  C    2.416136   1.395399   0.000000
     9  C    5.226681   4.946560   3.764210   0.000000
    10  C    5.286219   5.200438   4.230850   1.396479   0.000000
    11  C    6.554074   6.565344   5.624516   2.407352   1.393811
    12  C    7.534583   7.480313   6.409427   2.736767   2.388760
    13  N    7.537064   7.353332   6.162990   2.421509   2.801870
    14  C    6.472537   6.176449   4.935547   1.388929   2.388219
    15  H    3.395965   3.882190   3.415945   2.867650   2.943288
    16  H    2.154118   3.401941   3.880111   5.140812   4.980214
    17  H    1.087576   2.153980   3.401039   6.290795   6.270278
    18  H    2.156023   1.087302   2.154805   5.872687   6.140509
    19  H    3.400869   2.153968   1.088330   4.026672   4.636423
    20  H    4.608359   4.583381   3.808961   2.170451   1.086243
    21  H    6.930404   7.049149   6.247815   3.399986   2.163147
    22  H    8.536514   8.532953   7.485418   3.822624   3.386570
    23  H    6.809881   6.406690   5.116558   2.163384   3.389152
                   11         12         13         14         15
    11  C    0.000000
    12  C    1.386481   0.000000
    13  N    2.413438   1.350504   0.000000
    14  C    2.731051   2.304962   1.356573   0.000000
    15  H    3.926899   4.634085   4.635159   3.833347   0.000000
    16  H    5.973192   6.912826   7.068748   6.252981   2.467095
    17  H    7.493371   8.521351   8.577988   7.540893   4.290549
    18  H    7.510056   8.434628   8.287841   7.083673   4.969317
    19  H    6.006198   6.690574   6.335476   5.069851   4.320376
    20  H    2.146137   3.373460   3.887660   3.387319   2.850056
    21  H    1.084715   2.150644   3.384164   3.815220   4.485942
    22  H    2.158469   1.086673   2.062644   3.269657   5.566987
    23  H    3.817458   3.267521   2.066010   1.087564   4.352543
                   16         17         18         19         20
    16  H    0.000000
    17  H    2.480058   0.000000
    18  H    4.299423   2.481745   0.000000
    19  H    4.968273   4.297299   2.478176   0.000000
    20  H    4.422551   5.527377   5.489954   4.316381   0.000000
    21  H    6.239123   7.784868   7.971755   6.684145   2.485604
    22  H    7.789830   9.497833   9.490924   7.766735   4.288674
    23  H    6.728518   7.885000   7.257046   5.124945   4.312357
                   21         22         23
    21  H    0.000000
    22  H    2.497991   0.000000
    23  H    4.900988   4.122361   0.000000
 Stoichiometry    C12H9NO
 Framework group  C1[X(C12H9NO)]
 Deg. of freedom    63
 Full point group                 C1      NOp   1
 Largest Abelian subgroup         C1      NOp   1
 Largest concise Abelian subgroup C1      NOp   1
                         Standard orientation:                         
 ---------------------------------------------------------------------
 Center     Atomic      Atomic             Coordinates (Angstroms)
 Number     Number       Type             X           Y           Z
 ---------------------------------------------------------------------
      1          8           0        0.026149    2.300927   -0.067330
      2          6           0        0.014376    1.073563   -0.031665
      3          6           0       -1.286126    0.359966   -0.059446
      4          6           0       -1.450837   -0.840314   -0.761546
      5          6           0       -2.695143   -1.474032   -0.772074
      6          6           0       -3.775113   -0.906449   -0.095187
      7          6           0       -3.618648    0.300557    0.586056
      8          6           0       -2.377420    0.937988    0.599233
      9          6           0        1.297845    0.344204    0.043246
     10          6           0        1.447281   -0.866586    0.722814
     11          6           0        2.698324   -1.480282    0.754059
     12          6           0        3.756466   -0.855972    0.111485
     13          7           0        3.647862    0.321794   -0.540384
     14          6           0        2.422511    0.903795   -0.549299
     15          1           0       -0.630214   -1.282799   -1.320157
     16          1           0       -2.827125   -2.405355   -1.317817
     17          1           0       -4.744706   -1.398906   -0.109251
     18          1           0       -4.464614    0.749776    1.100615
     19          1           0       -2.262328    1.885938    1.121352
     20          1           0        0.614147   -1.329979    1.243466
     21          1           0        2.847780   -2.419991    1.274844
     22          1           0        4.750050   -1.296023    0.109501
     23          1           0        2.371697    1.858732   -1.067284
 ---------------------------------------------------------------------
 Rotational constants (GHZ):           1.7231219           0.4093990           0.3560198
 Standard basis: 6-31G(d) (6D, 7F)
 There are   228 symmetry adapted cartesian basis functions of A   symmetry.
 There are   228 symmetry adapted basis functions of A   symmetry.
   228 basis functions,   428 primitive gaussians,   228 cartesian basis functions
    48 alpha electrons       48 beta electrons
       nuclear repulsion energy       778.6173283249 Hartrees.
 NAtoms=   23 NActive=   23 NUniq=   23 SFac= 1.00D+00 NAtFMM=   60 NAOKFM=F Big=F
 Integral buffers will be    131072 words long.
 Raffenetti 2 integral format.
 Two-electron integral symmetry is turned on.
 One-electron integrals computed using PRISM.
 NBasis=   228 RedAO= T EigKep=  4.72D-04  NBF=   228
 NBsUse=   228 1.00D-06 EigRej= -1.00D+00 NBFU=   228
 ExpMin= 1.61D-01 ExpMax= 5.48D+03 ExpMxC= 8.25D+02 IAcc=3 IRadAn=         5 AccDes= 0.00D+00
 Harris functional with IExCor=  402 and IRadAn=       5 diagonalized for initial guess.
 HarFok:  IExCor=  402 AccDes= 0.00D+00 IRadAn=         5 IDoV= 1 UseB2=F ITyADJ=14
 ICtDFT=  3500011 ScaDFX=  1.000000  1.000000  1.000000  1.000000
 FoFCou: FMM=F IPFlag=           0 FMFlag=      100000 FMFlg1=           0
         NFxFlg=           0 DoJE=T BraDBF=F KetDBF=T FulRan=T
         wScrn=  0.000000 ICntrl=       500 IOpCl=  0 I1Cent=   200000004 NGrid=           0
         NMat0=    1 NMatS0=      1 NMatT0=    0 NMatD0=    1 NMtDS0=    0 NMtDT0=    0
 Petite list used in FoFCou.
 Requested convergence on RMS density matrix=1.00D-08 within 128 cycles.
 Requested convergence on MAX density matrix=1.00D-06.
 Requested convergence on             energy=1.00D-06.
 No special actions if energy rises.
 Integral accuracy reduced to 1.0D-05 until final iterations.
 Initial convergence to 1.0D-05 achieved.  Increase integral accuracy.
 SCF Done:  E(RB3LYP) =  -592.664279901     A.U. after   15 cycles
            NFock= 15  Conv=0.44D-08     -V/T= 2.0095

 **********************************************************************

            Population analysis using the SCF density.

 **********************************************************************

 Orbital symmetries:
       Occupied  (A) (A) (A) (A) (A) (A) (A) (A) (A) (A) (A) (A)
                 (A) (A) (A) (A) (A) (A) (A) (A) (A) (A) (A) (A)
                 (A) (A) (A) (A) (A) (A) (A) (A) (A) (A) (A) (A)
                 (A) (A) (A) (A) (A) (A) (A) (A) (A) (A) (A) (A)
       Virtual   (A) (A) (A) (A) (A) (A) (A) (A) (A) (A) (A) (A)
                 (A) (A) (A) (A) (A) (A) (A) (A) (A) (A) (A) (A)
                 (A) (A) (A) (A) (A) (A) (A) (A) (A) (A) (A) (A)
                 (A) (A) (A) (A) (A) (A) (A) (A) (A) (A) (A) (A)
                 (A) (A) (A) (A) (A) (A) (A) (A) (A) (A) (A) (A)
                 (A) (A) (A) (A) (A) (A) (A) (A) (A) (A) (A) (A)
                 (A) (A) (A) (A) (A) (A) (A) (A) (A) (A) (A) (A)
                 (A) (A) (A) (A) (A) (A) (A) (A) (A) (A) (A) (A)
                 (A) (A) (A) (A) (A) (A) (A) (A) (A) (A) (A) (A)
                 (A) (A) (A) (A) (A) (A) (A) (A) (A) (A) (A) (A)
                 (A) (A) (A) (A) (A) (A) (A) (A) (A) (A) (A) (A)
                 (A) (A) (A) (A) (A) (A) (A) (A) (A) (A) (A) (A)
                 (A) (A) (A) (A) (A) (A) (A) (A) (A) (A) (A) (A)
                 (A) (A) (A) (A) (A) (A) (A) (A) (A) (A) (A) (A)
                 (A) (A) (A) (A) (A) (A) (A) (A) (A) (A) (A) (A)
 The electronic state is 1-A.
 Alpha  occ. eigenvalues --  -19.13854 -14.33964 -10.27935 -10.23395 -10.23216
 Alpha  occ. eigenvalues --  -10.22211 -10.21130 -10.20944 -10.20828 -10.20754
 Alpha  occ. eigenvalues --  -10.20601 -10.20426 -10.20403 -10.20276  -1.03878
 Alpha  occ. eigenvalues --   -0.94335  -0.86844  -0.82150  -0.78167  -0.76641
 Alpha  occ. eigenvalues --   -0.75797  -0.66980  -0.64302  -0.62639  -0.61614
 Alpha  occ. eigenvalues --   -0.56934  -0.53814  -0.51583  -0.49387  -0.48107
 Alpha  occ. eigenvalues --   -0.46551  -0.45413  -0.44575  -0.43425  -0.42725
 Alpha  occ. eigenvalues --   -0.41312  -0.40947  -0.39023  -0.37763  -0.36869
 Alpha  occ. eigenvalues --   -0.36247  -0.35523  -0.29428  -0.27712  -0.27059
 Alpha  occ. eigenvalues --   -0.26411  -0.26091  -0.24592
 Alpha virt. eigenvalues --   -0.06891  -0.03574  -0.01937  -0.01219   0.04418
 Alpha virt. eigenvalues --    0.08616   0.09681   0.13270   0.13452   0.14584
 Alpha virt. eigenvalues --    0.14979   0.15785   0.16561   0.17374   0.17582
 Alpha virt. eigenvalues --    0.18070   0.22699   0.24697   0.27056   0.27969
 Alpha virt. eigenvalues --    0.28755   0.29813   0.30065   0.33034   0.34157
 Alpha virt. eigenvalues --    0.38289   0.40055   0.42740   0.45178   0.46422
 Alpha virt. eigenvalues --    0.50681   0.51640   0.51953   0.52981   0.54589
 Alpha virt. eigenvalues --    0.55367   0.56138   0.56780   0.57209   0.57974
 Alpha virt. eigenvalues --    0.58812   0.58936   0.59539   0.59989   0.60205
 Alpha virt. eigenvalues --    0.60883   0.62076   0.63700   0.63954   0.64380
 Alpha virt. eigenvalues --    0.66759   0.67237   0.69024   0.71193   0.73788
 Alpha virt. eigenvalues --    0.76004   0.77621   0.81000   0.81224   0.81808
 Alpha virt. eigenvalues --    0.82572   0.82830   0.83885   0.84947   0.85735
 Alpha virt. eigenvalues --    0.86105   0.87639   0.88673   0.89671   0.92404
 Alpha virt. eigenvalues --    0.92967   0.94501   0.97354   0.98055   0.99076
 Alpha virt. eigenvalues --    1.02242   1.03190   1.05494   1.07744   1.09294
 Alpha virt. eigenvalues --    1.11560   1.13114   1.13860   1.16046   1.18265
 Alpha virt. eigenvalues --    1.18707   1.22438   1.24236   1.25635   1.26419
 Alpha virt. eigenvalues --    1.31301   1.36831   1.39885   1.41255   1.42733
 Alpha virt. eigenvalues --    1.43619   1.45304   1.45754   1.47836   1.49079
 Alpha virt. eigenvalues --    1.49825   1.49983   1.50775   1.50892   1.52836
 Alpha virt. eigenvalues --    1.64181   1.71394   1.74201   1.76041   1.76799
 Alpha virt. eigenvalues --    1.77625   1.79242   1.80891   1.84028   1.86316
 Alpha virt. eigenvalues --    1.87118   1.88492   1.90700   1.93216   1.95657
 Alpha virt. eigenvalues --    1.97427   2.00773   2.03545   2.04489   2.06350
 Alpha virt. eigenvalues --    2.11501   2.12798   2.13439   2.14000   2.14832
 Alpha virt. eigenvalues --    2.15193   2.16704   2.19251   2.24363   2.27967
 Alpha virt. eigenvalues --    2.28660   2.28991   2.30221   2.31005   2.33180
 Alpha virt. eigenvalues --    2.36199   2.39492   2.47671   2.51469   2.53495
 Alpha virt. eigenvalues --    2.56682   2.57655   2.59696   2.61290   2.64242
 Alpha virt. eigenvalues --    2.67525   2.68659   2.71024   2.72126   2.73306
 Alpha virt. eigenvalues --    2.74829   2.75743   2.79933   2.83972   2.88605
 Alpha virt. eigenvalues --    2.96386   2.98166   3.12092   3.17042   3.37741
 Alpha virt. eigenvalues --    3.41864   3.98862   4.04747   4.07738   4.10242
 Alpha virt. eigenvalues --    4.10551   4.12904   4.13980   4.22090   4.30785
 Alpha virt. eigenvalues --    4.33937   4.34772   4.45155   4.62274   4.72856
          Condensed to atoms (all electrons):
               1          2          3          4          5          6
     1  O    8.065817   0.554280  -0.096752   0.001823  -0.000078  -0.000009
     2  C    0.554280   4.738596   0.293204  -0.044394   0.004498   0.000425
     3  C   -0.096752   0.293204   4.970588   0.515420  -0.016409  -0.034568
     4  C    0.001823  -0.044394   0.515420   4.989054   0.520304  -0.037863
     5  C   -0.000078   0.004498  -0.016409   0.520304   4.866149   0.551164
     6  C   -0.000009   0.000425  -0.034568  -0.037863   0.551164   4.847152
     7  C    0.000661   0.005413  -0.020205  -0.042404  -0.026651   0.541342
     8  C    0.002980  -0.025307   0.498494  -0.056508  -0.042106  -0.033652
     9  C   -0.098002   0.250904  -0.113409  -0.005881   0.000121  -0.000009
    10  C    0.002471  -0.052797  -0.004212  -0.002999  -0.000097  -0.000003
    11  C   -0.000086   0.005758   0.000047   0.000004  -0.000012  -0.000000
    12  C   -0.000003   0.000573  -0.000014  -0.000005  -0.000000   0.000000
    13  N    0.000330   0.005165  -0.000079  -0.000005  -0.000000  -0.000000
    14  C    0.004090  -0.013544   0.007552   0.000171   0.000012   0.000000
    15  H    0.000026  -0.007899  -0.043665   0.355559  -0.041515   0.004528
    16  H    0.000001  -0.000143   0.003637  -0.039451   0.358658  -0.042303
    17  H    0.000000   0.000005   0.000537   0.005023  -0.042807   0.360074
    18  H    0.000002  -0.000148   0.003816   0.000797   0.004545  -0.043181
    19  H    0.009344  -0.007017  -0.045032   0.005674   0.000291   0.004489
    20  H    0.000039  -0.008689   0.007067   0.003917   0.000154  -0.000014
    21  H    0.000000  -0.000064  -0.000001  -0.000005   0.000000   0.000000
    22  H    0.000000   0.000016  -0.000000   0.000000   0.000000  -0.000000
    23  H    0.009987  -0.002611   0.000461  -0.000023   0.000000   0.000000
               7          8          9         10         11         12
     1  O    0.000661   0.002980  -0.098002   0.002471  -0.000086  -0.000003
     2  C    0.005413  -0.025307   0.250904  -0.052797   0.005758   0.000573
     3  C   -0.020205   0.498494  -0.113409  -0.004212   0.000047  -0.000014
     4  C   -0.042404  -0.056508  -0.005881  -0.002999   0.000004  -0.000005
     5  C   -0.026651  -0.042106   0.000121  -0.000097  -0.000012  -0.000000
     6  C    0.541342  -0.033652  -0.000009  -0.000003  -0.000000   0.000000
     7  C    4.890281   0.507585  -0.000100  -0.000019   0.000000   0.000000
     8  C    0.507585   4.959230   0.008259   0.000237   0.000011   0.000000
     9  C   -0.000100   0.008259   5.111024   0.507194  -0.014447  -0.031810
    10  C   -0.000019   0.000237   0.507194   4.997002   0.510318  -0.038095
    11  C    0.000000   0.000011  -0.014447   0.510318   4.959013   0.501841
    12  C    0.000000   0.000000  -0.031810  -0.038095   0.501841   4.780139
    13  N   -0.000000   0.000000  -0.011260  -0.052391  -0.023079   0.457453
    14  C    0.000001  -0.000215   0.430327  -0.057303  -0.040684  -0.071331
    15  H    0.000327   0.005492   0.006307   0.003088   0.000083  -0.000001
    16  H    0.004527   0.000819   0.000006  -0.000006   0.000000   0.000000
    17  H   -0.042847   0.004627  -0.000000   0.000000   0.000000  -0.000000
    18  H    0.359788  -0.039130   0.000002  -0.000000   0.000000   0.000000
    19  H   -0.042770   0.359242   0.000684  -0.000031   0.000001   0.000000
    20  H   -0.000027  -0.000163  -0.043562   0.359624  -0.044312   0.004414
    21  H   -0.000000  -0.000000   0.004536  -0.040661   0.352024  -0.035785
    22  H   -0.000000   0.000000   0.000556   0.003720  -0.063561   0.378591
    23  H   -0.000000  -0.000010  -0.064921   0.004486   0.000249   0.004879
              13         14         15         16         17         18
     1  O    0.000330   0.004090   0.000026   0.000001   0.000000   0.000002
     2  C    0.005165  -0.013544  -0.007899  -0.000143   0.000005  -0.000148
     3  C   -0.000079   0.007552  -0.043665   0.003637   0.000537   0.003816
     4  C   -0.000005   0.000171   0.355559  -0.039451   0.005023   0.000797
     5  C   -0.000000   0.000012  -0.041515   0.358658  -0.042807   0.004545
     6  C   -0.000000   0.000000   0.004528  -0.042303   0.360074  -0.043181
     7  C   -0.000000   0.000001   0.000327   0.004527  -0.042847   0.359788
     8  C    0.000000  -0.000215   0.005492   0.000819   0.004627  -0.039130
     9  C   -0.011260   0.430327   0.006307   0.000006  -0.000000   0.000002
    10  C   -0.052391  -0.057303   0.003088  -0.000006   0.000000  -0.000000
    11  C   -0.023079  -0.040684   0.000083   0.000000   0.000000   0.000000
    12  C    0.457453  -0.071331  -0.000001   0.000000  -0.000000   0.000000
    13  N    6.716783   0.420231  -0.000008   0.000000  -0.000000   0.000000
    14  C    0.420231   4.914341  -0.000166  -0.000000   0.000000  -0.000000
    15  H   -0.000008  -0.000166   0.576957  -0.005081  -0.000172   0.000016
    16  H    0.000000  -0.000000  -0.005081   0.586857  -0.005560  -0.000176
    17  H   -0.000000   0.000000  -0.000172  -0.005560   0.588131  -0.005500
    18  H    0.000000  -0.000000   0.000016  -0.000176  -0.005500   0.583856
    19  H   -0.000000  -0.000016  -0.000135   0.000017  -0.000162  -0.005002
    20  H   -0.000262   0.005659  -0.000428  -0.000004   0.000000  -0.000000
    21  H    0.004634   0.000419  -0.000004  -0.000000   0.000000  -0.000000
    22  H   -0.052942   0.005177   0.000000   0.000000  -0.000000   0.000000
    23  H   -0.049128   0.377470  -0.000007  -0.000000   0.000000  -0.000000
              19         20         21         22         23
     1  O    0.009344   0.000039   0.000000   0.000000   0.009987
     2  C   -0.007017  -0.008689  -0.000064   0.000016  -0.002611
     3  C   -0.045032   0.007067  -0.000001  -0.000000   0.000461
     4  C    0.005674   0.003917  -0.000005   0.000000  -0.000023
     5  C    0.000291   0.000154   0.000000   0.000000   0.000000
     6  C    0.004489  -0.000014   0.000000  -0.000000   0.000000
     7  C   -0.042770  -0.000027  -0.000000  -0.000000  -0.000000
     8  C    0.359242  -0.000163  -0.000000   0.000000  -0.000010
     9  C    0.000684  -0.043562   0.004536   0.000556  -0.064921
    10  C   -0.000031   0.359624  -0.040661   0.003720   0.004486
    11  C    0.000001  -0.044312   0.352024  -0.063561   0.000249
    12  C    0.000000   0.004414  -0.035785   0.378591   0.004879
    13  N   -0.000000  -0.000262   0.004634  -0.052942  -0.049128
    14  C   -0.000016   0.005659   0.000419   0.005177   0.377470
    15  H   -0.000135  -0.000428  -0.000004   0.000000  -0.000007
    16  H    0.000017  -0.000004  -0.000000   0.000000  -0.000000
    17  H   -0.000162   0.000000   0.000000  -0.000000   0.000000
    18  H   -0.005002  -0.000000  -0.000000   0.000000  -0.000000
    19  H    0.560672  -0.000011  -0.000000   0.000000  -0.000003
    20  H   -0.000011   0.562301  -0.005527  -0.000174  -0.000141
    21  H   -0.000000  -0.005527   0.577754  -0.002060   0.000025
    22  H    0.000000  -0.000174  -0.002060   0.580488  -0.000176
    23  H   -0.000003  -0.000141   0.000025  -0.000176   0.544228
 Mulliken charges:
               1
     1  O   -0.456919
     2  C    0.303775
     3  C    0.073524
     4  C   -0.168207
     5  C   -0.136221
     6  C   -0.117571
     7  C   -0.134901
     8  C   -0.149885
     9  C    0.063483
    10  C   -0.139524
    11  C   -0.143166
    12  C    0.049154
    13  N   -0.415441
    14  C    0.017811
    15  H    0.146697
    16  H    0.138202
    17  H    0.138651
    18  H    0.140317
    19  H    0.159765
    20  H    0.160139
    21  H    0.144716
    22  H    0.150365
    23  H    0.175234
 Sum of Mulliken charges =  -0.00000
 Mulliken charges with hydrogens summed into heavy atoms:
               1
     1  O   -0.456919
     2  C    0.303775
     3  C    0.073524
     4  C   -0.021510
     5  C    0.001981
     6  C    0.021080
     7  C    0.005416
     8  C    0.009881
     9  C    0.063483
    10  C    0.020615
    11  C    0.001551
    12  C    0.199519
    13  N   -0.415441
    14  C    0.193045
 Electronic spatial extent (au):  <R**2>=           3035.2504
 Charge=             -0.0000 electrons
 Dipole moment (field-independent basis, Debye):
    X=             -2.0508    Y=             -3.9209    Z=              1.0822  Tot=              4.5552
 Quadrupole moment (field-independent basis, Debye-Ang):
   XX=            -75.5545   YY=            -80.6886   ZZ=            -78.7641
   XY=             -4.1425   XZ=              1.7831   YZ=              1.0584
 Traceless Quadrupole moment (field-independent basis, Debye-Ang):
   XX=              2.7812   YY=             -2.3529   ZZ=             -0.4283
   XY=             -4.1425   XZ=              1.7831   YZ=              1.0584
 Octapole moment (field-independent basis, Debye-Ang**2):
  XXX=            -56.8616  YYY=            -16.5237  ZZZ=             -0.4945  XYY=              2.8990
  XXY=            -26.0643  XXZ=             22.2351  XZZ=             -0.4928  YZZ=              2.4918
  YYZ=              0.9493  XYZ=            -12.5392
 Hexadecapole moment (field-independent basis, Debye-Ang**3):
 XXXX=          -3082.2072 YYYY=           -712.1043 ZZZZ=           -238.3565 XXXY=            -83.5765
 XXXZ=             27.9616 YYYX=             -1.0545 YYYZ=              0.7607 ZZZX=             -3.8921
 ZZZY=              0.1187 XXYY=           -592.8916 XXZZ=           -596.1367 YYZZ=           -138.2379
 XXYZ=             17.6638 YYXZ=              8.6065 ZZXY=             -3.8295
 N-N= 7.786173283249D+02 E-N=-2.933349792017D+03  KE= 5.870967364739D+02
 Calling FoFJK, ICntrl=      2127 FMM=F ISym2X=0 I1Cent= 0 IOpClX= 0 NMat=1 NMatS=1 NMatT=0.
 ***** Axes restored to original set *****
 -------------------------------------------------------------------
 Center     Atomic                   Forces (Hartrees/Bohr)
 Number     Number              X              Y              Z
 -------------------------------------------------------------------
      1        8           0.000543092    0.000716884   -0.001503041
      2        6          -0.004114605    0.000803724   -0.018169366
      3        6           0.001604428    0.000469146    0.005220922
      4        6          -0.004484242    0.000159426    0.006143775
      5        6           0.000128322   -0.001989240   -0.000295738
      6        6          -0.001951605   -0.001049784    0.001813118
      7        6           0.001927186    0.000955276   -0.002714550
      8        6          -0.007982564    0.001380249   -0.000746643
      9        6          -0.003808211    0.001288172    0.008840654
     10        6           0.002607301    0.001515394    0.008158785
     11        6          -0.005439322    0.003194052    0.001197423
     12        6           0.003940741   -0.007733721   -0.013576550
     13        7          -0.014598743    0.004295726    0.001093807
     14        6           0.030274570   -0.004280696    0.002809746
     15        1           0.001343373    0.002289458   -0.001255598
     16        1           0.000451246    0.000021910   -0.000677420
     17        1           0.000592514    0.000227011    0.000168668
     18        1           0.000624773    0.000095995    0.000278392
     19        1           0.002753101   -0.001766211    0.001724352
     20        1          -0.001792114   -0.001950341   -0.001409335
     21        1          -0.000047142    0.000677590    0.000617147
     22        1           0.000909018    0.000189168    0.001331330
     23        1          -0.003481118    0.000490813    0.000950123
 -------------------------------------------------------------------
 Cartesian Forces:  Max     0.030274570 RMS     0.005678784

 GradGradGradGradGradGradGradGradGradGradGradGradGradGradGradGradGradGrad
 Berny optimization.
 FormGI is forming the generalized inverse of G from B-inverse, IUseBI=4.
 Internal  Forces:  Max     0.016175942 RMS     0.003083757
 Search for a local minimum.
 Step number   1 out of a maximum of  123
 All quantities printed in internal units (Hartrees-Bohrs-Radians)
 Mixed Optimization -- RFO/linear search
 Second derivative matrix not updated -- first step.
 ITU=  0
     Eigenvalues ---    0.00982   0.01019   0.01055   0.01754   0.01824
     Eigenvalues ---    0.02097   0.02111   0.02122   0.02134   0.02144
     Eigenvalues ---    0.02152   0.02152   0.02153   0.02155   0.02175
     Eigenvalues ---    0.02218   0.02234   0.02245   0.02286   0.02301
     Eigenvalues ---    0.15996   0.15996   0.15998   0.15999   0.15999
     Eigenvalues ---    0.16000   0.16000   0.16000   0.16000   0.21998
     Eigenvalues ---    0.21999   0.22000   0.23179   0.23448   0.23476
     Eigenvalues ---    0.24981   0.24981   0.25000   0.25000   0.34152
     Eigenvalues ---    0.34784   0.35006   0.35094   0.35096   0.35105
     Eigenvalues ---    0.35126   0.35178   0.35200   0.35250   0.35431
     Eigenvalues ---    0.41915   0.41938   0.43190   0.44081   0.45757
     Eigenvalues ---    0.46079   0.46298   0.46441   0.46757   0.47737
     Eigenvalues ---    0.52231   0.53870   0.91951
 RFO step:  Lambda=-4.80281816D-03 EMin= 9.81863964D-03
 Linear search not attempted -- first point.
 Iteration  1 RMS(Cart)=  0.12278868 RMS(Int)=  0.00387745
 Iteration  2 RMS(Cart)=  0.00702090 RMS(Int)=  0.00004926
 Iteration  3 RMS(Cart)=  0.00001894 RMS(Int)=  0.00004827
 Iteration  4 RMS(Cart)=  0.00000000 RMS(Int)=  0.00004827
 Variable       Old X    -DE/DX   Delta X   Delta X   Delta X     New X
                                 (Linear)    (Quad)   (Total)
    R1        2.32047   0.00153   0.00000   0.00166   0.00166   2.32212
    R2        2.80374   0.00902   0.00000   0.02605   0.02605   2.82979
    R3        2.79326   0.01219   0.00000   0.03457   0.03457   2.82783
    R4        2.64612   0.00258   0.00000   0.00563   0.00560   2.65172
    R5        2.64487   0.00216   0.00000   0.00466   0.00465   2.64952
    R6        2.63886  -0.00049   0.00000  -0.00102  -0.00104   2.63782
    R7        2.05386  -0.00056   0.00000  -0.00157  -0.00157   2.05230
    R8        2.63660   0.00085   0.00000   0.00182   0.00183   2.63843
    R9        2.05504  -0.00060   0.00000  -0.00169  -0.00169   2.05335
   R10        2.63577   0.00273   0.00000   0.00579   0.00582   2.64159
   R11        2.05522  -0.00046   0.00000  -0.00130  -0.00130   2.05392
   R12        2.63692  -0.00159   0.00000  -0.00343  -0.00341   2.63351
   R13        2.05470  -0.00056   0.00000  -0.00157  -0.00157   2.05314
   R14        2.05665  -0.00222   0.00000  -0.00627  -0.00627   2.05038
   R15        2.63896   0.00304   0.00000   0.00786   0.00784   2.64680
   R16        2.62470   0.01183   0.00000   0.02468   0.02467   2.64936
   R17        2.63392  -0.00158   0.00000  -0.00211  -0.00211   2.63181
   R18        2.05270  -0.00009   0.00000  -0.00024  -0.00024   2.05246
   R19        2.62007   0.00810   0.00000   0.01660   0.01662   2.63669
   R20        2.04981   0.00083   0.00000   0.00231   0.00231   2.05213
   R21        2.55208  -0.00808   0.00000  -0.01570  -0.01568   2.53640
   R22        2.05351   0.00135   0.00000   0.00379   0.00379   2.05731
   R23        2.56355  -0.01618   0.00000  -0.03096  -0.03095   2.53260
   R24        2.05520  -0.00090   0.00000  -0.00254  -0.00254   2.05266
    A1        2.08128   0.00491   0.00000   0.01927   0.01927   2.10056
    A2        2.07870   0.00351   0.00000   0.01377   0.01377   2.09247
    A3        2.12319  -0.00842   0.00000  -0.03304  -0.03304   2.09015
    A4        2.12324   0.00195   0.00000   0.00765   0.00770   2.13093
    A5        2.06690   0.00032   0.00000   0.00123   0.00128   2.06819
    A6        2.09239  -0.00228   0.00000  -0.00909  -0.00921   2.08317
    A7        2.09162   0.00168   0.00000   0.00748   0.00735   2.09897
    A8        2.11515  -0.00343   0.00000  -0.01953  -0.01947   2.09568
    A9        2.07620   0.00175   0.00000   0.01191   0.01196   2.08816
   A10        2.09607  -0.00033   0.00000  -0.00140  -0.00153   2.09454
   A11        2.09506  -0.00033   0.00000  -0.00220  -0.00220   2.09286
   A12        2.09198   0.00066   0.00000   0.00379   0.00379   2.09577
   A13        2.09689  -0.00058   0.00000  -0.00267  -0.00272   2.09416
   A14        2.09393   0.00006   0.00000   0.00000   0.00000   2.09393
   A15        2.09228   0.00052   0.00000   0.00281   0.00281   2.09509
   A16        2.09405   0.00043   0.00000   0.00171   0.00168   2.09574
   A17        2.09600  -0.00004   0.00000   0.00020   0.00021   2.09621
   A18        2.09310  -0.00039   0.00000  -0.00192  -0.00190   2.09120
   A19        2.09493   0.00108   0.00000   0.00461   0.00454   2.09948
   A20        2.09791  -0.00358   0.00000  -0.02071  -0.02068   2.07722
   A21        2.09034   0.00249   0.00000   0.01610   0.01613   2.10647
   A22        2.14766   0.00112   0.00000   0.00288   0.00293   2.15059
   A23        2.07450   0.00097   0.00000   0.00227   0.00231   2.07681
   A24        2.06040  -0.00209   0.00000  -0.00520  -0.00530   2.05511
   A25        2.08141  -0.00294   0.00000  -0.00715  -0.00724   2.07417
   A26        2.11888  -0.00123   0.00000  -0.01285  -0.01281   2.10607
   A27        2.08271   0.00417   0.00000   0.01995   0.01999   2.10270
   A28        2.06731  -0.00053   0.00000   0.00059   0.00052   2.06783
   A29        2.11282   0.00003   0.00000  -0.00165  -0.00164   2.11118
   A30        2.10301   0.00049   0.00000   0.00115   0.00115   2.10417
   A31        2.15918   0.00139   0.00000   0.00366   0.00363   2.16281
   A32        2.11333  -0.00158   0.00000  -0.00719  -0.00718   2.10616
   A33        2.01065   0.00019   0.00000   0.00356   0.00357   2.01421
   A34        2.03752   0.00198   0.00000   0.00103   0.00097   2.03849
   A35        2.16007   0.00220   0.00000   0.00774   0.00767   2.16773
   A36        2.11662  -0.00468   0.00000  -0.02560  -0.02557   2.09104
   A37        2.00649   0.00248   0.00000   0.01789   0.01792   2.02441
    D1        2.48203   0.00187   0.00000   0.13043   0.13040   2.61243
    D2       -0.62062   0.00205   0.00000   0.13707   0.13710  -0.48352
    D3       -0.66378   0.00186   0.00000   0.12997   0.12994  -0.53384
    D4        2.51675   0.00204   0.00000   0.13661   0.13664   2.65339
    D5        2.56629   0.00131   0.00000   0.08684   0.08684   2.65313
    D6       -0.53680   0.00138   0.00000   0.08863   0.08864  -0.44817
    D7       -0.57108   0.00132   0.00000   0.08729   0.08728  -0.48380
    D8        2.60901   0.00139   0.00000   0.08907   0.08908   2.69809
    D9       -3.13161   0.00106   0.00000   0.04175   0.04176  -3.08984
   D10       -0.01249   0.00090   0.00000   0.03467   0.03470   0.02221
   D11       -0.02952   0.00093   0.00000   0.03525   0.03524   0.00573
   D12        3.08960   0.00078   0.00000   0.02818   0.02818   3.11779
   D13        3.13330  -0.00049   0.00000  -0.02117  -0.02110   3.11220
   D14       -0.00615  -0.00044   0.00000  -0.01837  -0.01834  -0.02449
   D15        0.02994  -0.00041   0.00000  -0.01504  -0.01497   0.01497
   D16       -3.10951  -0.00035   0.00000  -0.01224  -0.01221  -3.12173
   D17        0.01048  -0.00083   0.00000  -0.03240  -0.03247  -0.02200
   D18        3.13962  -0.00039   0.00000  -0.01495  -0.01507   3.12455
   D19       -3.10915  -0.00062   0.00000  -0.02508  -0.02504  -3.13418
   D20        0.02000  -0.00017   0.00000  -0.00762  -0.00763   0.01237
   D21        0.00825   0.00025   0.00000   0.00941   0.00935   0.01761
   D22        3.13573   0.00055   0.00000   0.02112   0.02109  -3.12636
   D23       -3.12091  -0.00019   0.00000  -0.00796  -0.00804  -3.12895
   D24        0.00657   0.00011   0.00000   0.00374   0.00369   0.01027
   D25       -0.00788   0.00028   0.00000   0.01095   0.01093   0.00305
   D26        3.12536   0.00024   0.00000   0.00982   0.00985   3.13522
   D27       -3.13537  -0.00002   0.00000  -0.00073  -0.00079  -3.13616
   D28       -0.00213  -0.00005   0.00000  -0.00185  -0.00186  -0.00399
   D29       -0.01125  -0.00023   0.00000  -0.00821  -0.00814  -0.01940
   D30        3.12821  -0.00029   0.00000  -0.01104  -0.01099   3.11722
   D31        3.13868  -0.00020   0.00000  -0.00710  -0.00708   3.13160
   D32       -0.00504  -0.00026   0.00000  -0.00993  -0.00993  -0.01498
   D33       -3.13049   0.00095   0.00000   0.03483   0.03472  -3.09577
   D34       -0.00997   0.00089   0.00000   0.03206   0.03202   0.02205
   D35       -0.02710   0.00095   0.00000   0.03321   0.03310   0.00600
   D36        3.09342   0.00088   0.00000   0.03044   0.03040   3.12382
   D37        3.14146  -0.00060   0.00000  -0.02498  -0.02505   3.11641
   D38       -0.00602  -0.00046   0.00000  -0.01860  -0.01867  -0.02468
   D39        0.03643  -0.00060   0.00000  -0.02345  -0.02353   0.01291
   D40       -3.11105  -0.00046   0.00000  -0.01707  -0.01714  -3.12818
   D41        0.00711  -0.00063   0.00000  -0.02541  -0.02545  -0.01834
   D42        3.13953  -0.00035   0.00000  -0.01380  -0.01380   3.12573
   D43       -3.11386  -0.00050   0.00000  -0.02230  -0.02236  -3.13621
   D44        0.01857  -0.00022   0.00000  -0.01069  -0.01071   0.00786
   D45        0.00659   0.00021   0.00000   0.00725   0.00730   0.01389
   D46        3.14077   0.00034   0.00000   0.01262   0.01266  -3.12975
   D47       -3.12589  -0.00007   0.00000  -0.00428  -0.00428  -3.13017
   D48        0.00829   0.00006   0.00000   0.00110   0.00108   0.00937
   D49        0.00089   0.00007   0.00000   0.00309   0.00313   0.00402
   D50       -3.13369  -0.00004   0.00000  -0.00195  -0.00193  -3.13562
   D51       -0.02309   0.00014   0.00000   0.00528   0.00530  -0.01780
   D52        3.12405   0.00003   0.00000  -0.00060  -0.00074   3.12331
         Item               Value     Threshold  Converged?
 Maximum Force            0.016176     0.000015     NO 
 RMS     Force            0.003084     0.000010     NO 
 Maximum Displacement     0.494353     0.000060     NO 
 RMS     Displacement     0.123244     0.000040     NO 
 Predicted change in Energy=-2.710103D-03
 GradGradGradGradGradGradGradGradGradGradGradGradGradGradGradGradGradGrad

                          Input orientation:                          
 ---------------------------------------------------------------------
 Center     Atomic      Atomic             Coordinates (Angstroms)
 Number     Number       Type             X           Y           Z
 ---------------------------------------------------------------------
      1          8           0        0.156061    0.159422   -2.580167
      2          6           0        0.168716    0.073379   -1.354435
      3          6           0       -1.113504   -0.054370   -0.591557
      4          6           0       -1.190705   -0.747609    0.626030
      5          6           0       -2.417893   -0.895967    1.274463
      6          6           0       -3.570596   -0.331069    0.725341
      7          6           0       -3.499211    0.365106   -0.484733
      8          6           0       -2.279161    0.493053   -1.145953
      9          6           0        1.471213    0.102283   -0.618263
     10          6           0        1.599674    0.569478    0.695883
     11          6           0        2.865792    0.607037    1.274784
     12          6           0        3.953225    0.155317    0.526299
     13          7           0        3.858088   -0.302634   -0.731772
     14          6           0        2.635403   -0.312083   -1.280471
     15          1           0       -0.299020   -1.195353    1.054845
     16          1           0       -2.473744   -1.447491    2.209006
     17          1           0       -4.523364   -0.434824    1.237978
     18          1           0       -4.396059    0.800361   -0.916748
     19          1           0       -2.216312    1.011839   -2.096829
     20          1           0        0.731245    0.917727    1.247427
     21          1           0        3.006956    0.976568    2.286111
     22          1           0        4.957093    0.158426    0.947564
     23          1           0        2.576101   -0.668594   -2.304805
 ---------------------------------------------------------------------
                    Distance matrix (angstroms):
                    1          2          3          4          5
     1  O    0.000000
     2  C    1.228814   0.000000
     3  C    2.368981   1.497462   0.000000
     4  C    3.593909   2.538560   1.403231   0.000000
     5  C    4.753657   3.813303   2.427291   1.395874   0.000000
     6  C    5.005491   4.297848   2.801443   2.418109   1.396198
     7  C    4.218313   3.780896   2.424658   2.793050   2.419570
     8  C    2.845801   2.492326   1.402064   2.421549   2.794107
     9  C    2.362617   1.496423   2.589597   3.058821   4.438925
    10  C    3.603425   2.549031   3.067250   3.086392   4.315452
    11  C    4.733250   3.804182   4.444714   4.325635   5.493300
    12  C    4.905977   4.226865   5.192814   5.223528   6.500469
    13  N    4.163540   3.760393   4.979761   5.247088   6.615508
    14  C    2.838779   2.497718   3.820382   4.296921   5.692486
    15  H    3.905870   2.762804   2.162374   1.086029   2.151159
    16  H    5.695106   4.689750   3.410893   2.154493   1.086586
    17  H    6.068638   5.384653   3.888327   3.402783   2.155688
    18  H    4.888718   4.642978   3.407563   3.879520   3.404714
    19  H    2.566784   2.668373   2.149147   3.400219   3.878913
    20  H    3.944153   2.792678   2.780276   2.617895   3.634184
    21  H    5.698772   4.703715   5.130497   4.832082   5.827418
    22  H    5.957752   5.313661   6.266285   6.222516   7.457146
    23  H    2.572553   2.692440   4.114083   4.773350   6.148401
                    6          7          8          9         10
     6  C    0.000000
     7  C    1.397868   0.000000
     8  C    2.418414   1.393594   0.000000
     9  C    5.235733   4.979158   3.807421   0.000000
    10  C    5.248194   5.237771   4.294596   1.400626   0.000000
    11  C    6.527558   6.608153   5.687134   2.404840   1.392692
    12  C    7.542153   7.523630   6.461666   2.733720   2.395724
    13  N    7.570292   7.391667   6.202457   2.423637   2.810553
    14  C    6.522121   6.222963   4.981895   1.401983   2.399137
    15  H    3.399819   3.878988   3.408105   2.759868   2.616968
    16  H    2.156558   3.404896   3.880634   5.094893   4.790662
    17  H    1.086889   2.157894   3.403017   6.298338   6.228489
    18  H    2.158237   1.086473   2.151333   5.916189   6.213107
    19  H    3.406191   2.159386   1.085014   4.075694   4.749386
    20  H    4.509757   4.604620   3.869258   2.166402   1.086115
    21  H    6.885499   7.098004   6.321066   3.399746   2.162173
    22  H    8.544617   8.579235   7.540435   3.821823   3.391839
    23  H    6.861312   6.425777   5.125030   2.158577   3.389744
                   11         12         13         14         15
    11  C    0.000000
    12  C    1.395275   0.000000
    13  N    2.416282   1.342205   0.000000
    14  C    2.725287   2.284631   1.340193   0.000000
    15  H    3.648700   4.492801   4.611994   3.852882   0.000000
    16  H    5.796939   6.834211   7.074671   6.290389   2.474892
    17  H    7.462336   8.526859   8.610814   7.589835   4.296164
    18  H    7.587798   8.497589   8.329571   7.128204   4.965460
    19  H    6.112235   6.758522   6.363140   5.094933   4.298924
    20  H    2.157213   3.388576   3.896620   3.395367   2.358737
    21  H    1.085939   2.160282   3.386503   3.810404   4.142792
    22  H    2.163762   1.088680   2.059262   3.252040   5.428715
    23  H    3.811117   3.254298   2.062002   1.086222   4.453206
                   16         17         18         19         20
    16  H    0.000000
    17  H    2.483814   0.000000
    18  H    4.303310   2.486912   0.000000
    19  H    4.965359   4.305376   2.487692   0.000000
    20  H    4.097664   5.425901   5.566568   4.458811   0.000000
    21  H    5.993336   7.732808   8.068085   6.818646   2.502236
    22  H    7.706332   9.503439   9.558724   7.839285   4.303980
    23  H    6.817780   7.937781   7.259170   5.082749   4.305608
                   21         22         23
    21  H    0.000000
    22  H    2.502818   0.000000
    23  H    4.895785   4.114729   0.000000
 Stoichiometry    C12H9NO
 Framework group  C1[X(C12H9NO)]
 Deg. of freedom    63
 Full point group                 C1      NOp   1
 Largest Abelian subgroup         C1      NOp   1
 Largest concise Abelian subgroup C1      NOp   1
                         Standard orientation:                         
 ---------------------------------------------------------------------
 Center     Atomic      Atomic             Coordinates (Angstroms)
 Number     Number       Type             X           Y           Z
 ---------------------------------------------------------------------
      1          8           0        0.027247    2.333317   -0.046101
      2          6           0        0.012574    1.104852   -0.020757
      3          6           0       -1.288238    0.363178   -0.034817
      4          6           0       -1.414422   -0.909850   -0.611475
      5          6           0       -2.658731   -1.540694   -0.658327
      6          6           0       -3.779245   -0.916589   -0.106685
      7          6           0       -3.658915    0.349357    0.473777
      8          6           0       -2.422221    0.991257    0.499395
      9          6           0        1.300468    0.344599    0.030489
     10          6           0        1.419703   -0.924682    0.610544
     11          6           0        2.674668   -1.526731    0.657350
     12          6           0        3.759683   -0.847156    0.102633
     13          7           0        3.672969    0.366362   -0.464262
     14          6           0        2.461818    0.939877   -0.481828
     15          1           0       -0.548104   -1.397621   -1.048547
     16          1           0       -2.752882   -2.519622   -1.120394
     17          1           0       -4.745076   -1.414500   -0.130849
     18          1           0       -4.530779    0.839309    0.898304
     19          1           0       -2.321937    1.983335    0.927157
     20          1           0        0.553668   -1.422521    1.036908
     21          1           0        2.809056   -2.503601    1.112244
     22          1           0        4.754492   -1.289343    0.109770
     23          1           0        2.409949    1.928994   -0.927738
 ---------------------------------------------------------------------
 Rotational constants (GHZ):           1.7253896           0.4126232           0.3507558
 Standard basis: 6-31G(d) (6D, 7F)
 There are   228 symmetry adapted cartesian basis functions of A   symmetry.
 There are   228 symmetry adapted basis functions of A   symmetry.
   228 basis functions,   428 primitive gaussians,   228 cartesian basis functions
    48 alpha electrons       48 beta electrons
       nuclear repulsion energy       778.0328390979 Hartrees.
 NAtoms=   23 NActive=   23 NUniq=   23 SFac= 1.00D+00 NAtFMM=   60 NAOKFM=F Big=F
 Integral buffers will be    131072 words long.
 Raffenetti 2 integral format.
 Two-electron integral symmetry is turned on.
 One-electron integrals computed using PRISM.
 NBasis=   228 RedAO= T EigKep=  4.69D-04  NBF=   228
 NBsUse=   228 1.00D-06 EigRej= -1.00D+00 NBFU=   228
 Initial guess from the checkpoint file:  "2.chk"
 B after Tr=    -0.000000    0.000000    0.000000
         Rot=    0.999995    0.002371    0.002203   -0.000540 Ang=   0.38 deg.
 ExpMin= 1.61D-01 ExpMax= 5.48D+03 ExpMxC= 8.25D+02 IAcc=2 IRadAn=         4 AccDes= 0.00D+00
 Harris functional with IExCor=  402 and IRadAn=       4 diagonalized for initial guess.
 HarFok:  IExCor=  402 AccDes= 0.00D+00 IRadAn=         4 IDoV= 1 UseB2=F ITyADJ=14
 ICtDFT=  3500011 ScaDFX=  1.000000  1.000000  1.000000  1.000000
 FoFCou: FMM=F IPFlag=           0 FMFlag=      100000 FMFlg1=           0
         NFxFlg=           0 DoJE=T BraDBF=F KetDBF=T FulRan=T
         wScrn=  0.000000 ICntrl=       500 IOpCl=  0 I1Cent=   200000004 NGrid=           0
         NMat0=    1 NMatS0=      1 NMatT0=    0 NMatD0=    1 NMtDS0=    0 NMtDT0=    0
 Petite list used in FoFCou.
 Requested convergence on RMS density matrix=1.00D-08 within 128 cycles.
 Requested convergence on MAX density matrix=1.00D-06.
 Requested convergence on             energy=1.00D-06.
 No special actions if energy rises.
 Integral accuracy reduced to 1.0D-05 until final iterations.
 Initial convergence to 1.0D-05 achieved.  Increase integral accuracy.
 SCF Done:  E(RB3LYP) =  -592.666511230     A.U. after   13 cycles
            NFock= 13  Conv=0.79D-08     -V/T= 2.0096
 Calling FoFJK, ICntrl=      2127 FMM=F ISym2X=0 I1Cent= 0 IOpClX= 0 NMat=1 NMatS=1 NMatT=0.
 ***** Axes restored to original set *****
 -------------------------------------------------------------------
 Center     Atomic                   Forces (Hartrees/Bohr)
 Number     Number              X              Y              Z
 -------------------------------------------------------------------
      1        8           0.000105553    0.000103027    0.004728641
      2        6          -0.000872028    0.000505645   -0.006805306
      3        6           0.001934846    0.000213177    0.001180353
      4        6          -0.002496452   -0.001558627    0.001160331
      5        6           0.000292189    0.000756623   -0.000090468
      6        6           0.000086515   -0.000070312    0.000247504
      7        6           0.001144243    0.000055197   -0.000877176
      8        6          -0.002886430   -0.000749361   -0.000029037
      9        6          -0.002019160   -0.000746483    0.001884635
     10        6           0.002367770    0.001692436    0.000797086
     11        6          -0.000267612   -0.000412505    0.000234781
     12        6           0.001648514   -0.000975244   -0.001585008
     13        7          -0.005253673    0.001008279    0.000786287
     14        6           0.007030845    0.000076696   -0.000269624
     15        1          -0.001072172   -0.000555002   -0.000598375
     16        1           0.000148296   -0.000098794   -0.000105691
     17        1           0.000039768   -0.000102678   -0.000151232
     18        1          -0.000038931    0.000123815    0.000129038
     19        1           0.000878999   -0.000081475   -0.000218548
     20        1           0.000967411    0.000445004   -0.000692091
     21        1           0.000359794   -0.000045091   -0.000104380
     22        1          -0.000197469    0.000556752    0.000832495
     23        1          -0.001900817   -0.000141078   -0.000454216
 -------------------------------------------------------------------
 Cartesian Forces:  Max     0.007030845 RMS     0.001738414

 GradGradGradGradGradGradGradGradGradGradGradGradGradGradGradGradGradGrad
 Berny optimization.
 Using GEDIIS/GDIIS optimizer.
 FormGI is forming the generalized inverse of G from B-inverse, IUseBI=4.
 Internal  Forces:  Max     0.007103291 RMS     0.001553848
 Search for a local minimum.
 Step number   2 out of a maximum of  123
 All quantities printed in internal units (Hartrees-Bohrs-Radians)
 Mixed Optimization -- RFO/linear search
 Update second derivatives using D2CorX and points    1    2
 DE= -2.23D-03 DEPred=-2.71D-03 R= 8.23D-01
 TightC=F SS=  1.41D+00  RLast= 3.58D-01 DXNew= 5.0454D-01 1.0754D+00
 Trust test= 8.23D-01 RLast= 3.58D-01 DXMaxT set to 5.05D-01
 ITU=  1  0
 Use linear search instead of GDIIS.
     Eigenvalues ---    0.01008   0.01019   0.01422   0.01745   0.01819
     Eigenvalues ---    0.02105   0.02120   0.02123   0.02139   0.02143
     Eigenvalues ---    0.02152   0.02152   0.02155   0.02165   0.02216
     Eigenvalues ---    0.02233   0.02242   0.02284   0.02299   0.02473
     Eigenvalues ---    0.14041   0.15994   0.15999   0.15999   0.16000
     Eigenvalues ---    0.16000   0.16000   0.16000   0.16115   0.21876
     Eigenvalues ---    0.21998   0.22007   0.22464   0.23236   0.23454
     Eigenvalues ---    0.24154   0.24977   0.25000   0.29235   0.32816
     Eigenvalues ---    0.34396   0.35026   0.35094   0.35105   0.35120
     Eigenvalues ---    0.35130   0.35193   0.35208   0.35386   0.35472
     Eigenvalues ---    0.41763   0.41916   0.42719   0.43545   0.45697
     Eigenvalues ---    0.45803   0.46238   0.46401   0.46751   0.47199
     Eigenvalues ---    0.50409   0.53897   0.92730
 RFO step:  Lambda=-1.32118358D-03 EMin= 1.00759458D-02
 Quartic linear search produced a step of -0.11648.
 Iteration  1 RMS(Cart)=  0.07607479 RMS(Int)=  0.00107660
 Iteration  2 RMS(Cart)=  0.00174748 RMS(Int)=  0.00013853
 Iteration  3 RMS(Cart)=  0.00000142 RMS(Int)=  0.00013853
 Iteration  4 RMS(Cart)=  0.00000000 RMS(Int)=  0.00013853
 Variable       Old X    -DE/DX   Delta X   Delta X   Delta X     New X
                                 (Linear)    (Quad)   (Total)
    R1        2.32212  -0.00471  -0.00019  -0.00380  -0.00399   2.31813
    R2        2.82979   0.00219  -0.00303   0.01712   0.01408   2.84388
    R3        2.82783   0.00311  -0.00403   0.02309   0.01907   2.84690
    R4        2.65172   0.00146  -0.00065   0.00546   0.00484   2.65656
    R5        2.64952   0.00096  -0.00054   0.00399   0.00347   2.65299
    R6        2.63782  -0.00058   0.00012  -0.00148  -0.00135   2.63647
    R7        2.05230  -0.00089   0.00018  -0.00291  -0.00273   2.04957
    R8        2.63843  -0.00029  -0.00021   0.00017  -0.00008   2.63835
    R9        2.05335  -0.00005   0.00020  -0.00087  -0.00067   2.05268
   R10        2.64159  -0.00009  -0.00068   0.00222   0.00150   2.64309
   R11        2.05392  -0.00010   0.00015  -0.00081  -0.00066   2.05326
   R12        2.63351  -0.00136   0.00040  -0.00415  -0.00376   2.62976
   R13        2.05314   0.00003   0.00018  -0.00061  -0.00043   2.05270
   R14        2.05038   0.00020   0.00073  -0.00225  -0.00152   2.04886
   R15        2.64680   0.00151  -0.00091   0.00660   0.00572   2.65252
   R16        2.64936   0.00158  -0.00287   0.01381   0.01096   2.66033
   R17        2.63181   0.00021   0.00025  -0.00031  -0.00006   2.63175
   R18        2.05246  -0.00098   0.00003  -0.00256  -0.00253   2.04993
   R19        2.63669  -0.00033  -0.00194   0.00662   0.00465   2.64133
   R20        2.05213  -0.00007  -0.00027   0.00085   0.00058   2.05271
   R21        2.53640  -0.00116   0.00183  -0.00898  -0.00719   2.52921
   R22        2.05731   0.00014  -0.00044   0.00202   0.00158   2.05889
   R23        2.53260  -0.00353   0.00361  -0.01958  -0.01597   2.51663
   R24        2.05266   0.00058   0.00030   0.00034   0.00063   2.05329
    A1        2.10056  -0.00345  -0.00224  -0.00364  -0.00589   2.09466
    A2        2.09247  -0.00365  -0.00160  -0.00679  -0.00839   2.08408
    A3        2.09015   0.00710   0.00385   0.01041   0.01425   2.10440
    A4        2.13093   0.00547  -0.00090   0.02197   0.02072   2.15165
    A5        2.06819  -0.00408  -0.00015  -0.01450  -0.01492   2.05327
    A6        2.08317  -0.00142   0.00107  -0.00918  -0.00826   2.07491
    A7        2.09897   0.00024  -0.00086   0.00459   0.00379   2.10275
    A8        2.09568   0.00020   0.00227  -0.00767  -0.00545   2.09023
    A9        2.08816  -0.00045  -0.00139   0.00276   0.00130   2.08946
   A10        2.09454   0.00029   0.00018   0.00037   0.00056   2.09511
   A11        2.09286  -0.00032   0.00026  -0.00246  -0.00221   2.09066
   A12        2.09577   0.00003  -0.00044   0.00210   0.00165   2.09742
   A13        2.09416  -0.00005   0.00032  -0.00199  -0.00171   2.09245
   A14        2.09393   0.00006  -0.00000   0.00058   0.00060   2.09453
   A15        2.09509  -0.00002  -0.00033   0.00140   0.00108   2.09617
   A16        2.09574  -0.00001  -0.00020   0.00013  -0.00007   2.09566
   A17        2.09621  -0.00007  -0.00002  -0.00004  -0.00006   2.09615
   A18        2.09120   0.00009   0.00022  -0.00009   0.00014   2.09134
   A19        2.09948   0.00095  -0.00053   0.00578   0.00529   2.10477
   A20        2.07722  -0.00138   0.00241  -0.01602  -0.01364   2.06358
   A21        2.10647   0.00043  -0.00188   0.01027   0.00836   2.11483
   A22        2.15059   0.00572  -0.00034   0.02064   0.01996   2.17055
   A23        2.07681  -0.00409  -0.00027  -0.01419  -0.01472   2.06209
   A24        2.05511  -0.00165   0.00062  -0.00787  -0.00740   2.04771
   A25        2.07417   0.00031   0.00084  -0.00079   0.00011   2.07428
   A26        2.10607  -0.00004   0.00149  -0.00633  -0.00488   2.10119
   A27        2.10270  -0.00027  -0.00233   0.00694   0.00456   2.10726
   A28        2.06783   0.00006  -0.00006   0.00095   0.00089   2.06872
   A29        2.11118   0.00035   0.00019   0.00098   0.00117   2.11235
   A30        2.10417  -0.00041  -0.00013  -0.00192  -0.00206   2.10211
   A31        2.16281  -0.00087  -0.00042  -0.00245  -0.00291   2.15990
   A32        2.10616  -0.00059   0.00084  -0.00676  -0.00592   2.10024
   A33        2.01421   0.00145  -0.00042   0.00919   0.00878   2.02299
   A34        2.03849   0.00182  -0.00011   0.00559   0.00549   2.04397
   A35        2.16773   0.00033  -0.00089   0.00444   0.00359   2.17133
   A36        2.09104  -0.00207   0.00298  -0.02231  -0.01937   2.07167
   A37        2.02441   0.00174  -0.00209   0.01787   0.01573   2.04014
    D1        2.61243  -0.00124  -0.01519  -0.01321  -0.02848   2.58395
    D2       -0.48352  -0.00034  -0.01597   0.03076   0.01488  -0.46864
    D3       -0.53384  -0.00131  -0.01513  -0.01885  -0.03406  -0.56791
    D4        2.65339  -0.00041  -0.01592   0.02512   0.00929   2.66268
    D5        2.65313  -0.00170  -0.01011  -0.06600  -0.07618   2.57695
    D6       -0.44817  -0.00074  -0.01032  -0.02304  -0.03329  -0.48146
    D7       -0.48380  -0.00163  -0.01017  -0.06039  -0.07063  -0.55444
    D8        2.69809  -0.00067  -0.01038  -0.01744  -0.02774   2.67034
    D9       -3.08984   0.00034  -0.00486   0.03342   0.02892  -3.06093
   D10        0.02221   0.00007  -0.00404   0.02067   0.01694   0.03915
   D11        0.00573  -0.00064  -0.00411  -0.01104  -0.01510  -0.00937
   D12        3.11779  -0.00091  -0.00328  -0.02379  -0.02708   3.09071
   D13        3.11220  -0.00013   0.00246  -0.02327  -0.02034   3.09186
   D14       -0.02449  -0.00033   0.00214  -0.02937  -0.02680  -0.05129
   D15        0.01497   0.00056   0.00174   0.01862   0.02026   0.03522
   D16       -3.12173   0.00036   0.00142   0.01253   0.01380  -3.10793
   D17       -0.02200   0.00033   0.00378  -0.00227   0.00161  -0.02039
   D18        3.12455   0.00002   0.00175  -0.00555  -0.00377   3.12078
   D19       -3.13418   0.00059   0.00292   0.01059   0.01369  -3.12049
   D20        0.01237   0.00028   0.00089   0.00732   0.00831   0.02068
   D21        0.01761   0.00007  -0.00109   0.00816   0.00704   0.02465
   D22       -3.12636  -0.00017  -0.00246   0.00361   0.00111  -3.12525
   D23       -3.12895   0.00037   0.00094   0.01143   0.01244  -3.11651
   D24        0.01027   0.00013  -0.00043   0.00688   0.00650   0.01677
   D25        0.00305  -0.00015  -0.00127  -0.00068  -0.00201   0.00104
   D26        3.13522  -0.00010  -0.00115  -0.00055  -0.00167   3.13354
   D27       -3.13616   0.00009   0.00009   0.00387   0.00393  -3.13223
   D28       -0.00399   0.00014   0.00022   0.00401   0.00427   0.00027
   D29       -0.01940  -0.00017   0.00095  -0.01286  -0.01187  -0.03127
   D30        3.11722   0.00002   0.00128  -0.00674  -0.00528   3.11193
   D31        3.13160  -0.00022   0.00083  -0.01299  -0.01220   3.11940
   D32       -0.01498  -0.00003   0.00116  -0.00687  -0.00561  -0.02059
   D33       -3.09577   0.00041  -0.00404   0.03274   0.02908  -3.06669
   D34        0.02205   0.00019  -0.00373   0.02420   0.02078   0.04284
   D35        0.00600  -0.00060  -0.00386  -0.00986  -0.01366  -0.00766
   D36        3.12382  -0.00082  -0.00354  -0.01840  -0.02195   3.10187
   D37        3.11641  -0.00017   0.00292  -0.02589  -0.02249   3.09392
   D38       -0.02468  -0.00053   0.00217  -0.03576  -0.03316  -0.05784
   D39        0.01291   0.00057   0.00274   0.01404   0.01670   0.02961
   D40       -3.12818   0.00021   0.00200   0.00417   0.00603  -3.12215
   D41       -0.01834   0.00032   0.00296   0.00039   0.00344  -0.01490
   D42        3.12573   0.00004   0.00161  -0.00408  -0.00248   3.12325
   D43       -3.13621   0.00053   0.00260   0.00909   0.01190  -3.12432
   D44        0.00786   0.00025   0.00125   0.00462   0.00597   0.01383
   D45        0.01389   0.00006  -0.00085   0.00678   0.00587   0.01976
   D46       -3.12975  -0.00023  -0.00148  -0.00228  -0.00379  -3.13354
   D47       -3.13017   0.00034   0.00050   0.01123   0.01176  -3.11841
   D48        0.00937   0.00004  -0.00013   0.00217   0.00210   0.01148
   D49        0.00402  -0.00012  -0.00037  -0.00334  -0.00373   0.00029
   D50       -3.13562   0.00017   0.00022   0.00530   0.00555  -3.13007
   D51       -0.01780  -0.00022  -0.00062  -0.00741  -0.00797  -0.02577
   D52        3.12331   0.00013   0.00009   0.00211   0.00251   3.12582
         Item               Value     Threshold  Converged?
 Maximum Force            0.007103     0.000015     NO 
 RMS     Force            0.001554     0.000010     NO 
 Maximum Displacement     0.250528     0.000060     NO 
 RMS     Displacement     0.076396     0.000040     NO 
 Predicted change in Energy=-7.362325D-04
 GradGradGradGradGradGradGradGradGradGradGradGradGradGradGradGradGradGrad

                          Input orientation:                          
 ---------------------------------------------------------------------
 Center     Atomic      Atomic             Coordinates (Angstroms)
 Number     Number       Type             X           Y           Z
 ---------------------------------------------------------------------
      1          8           0        0.154770    0.190982   -2.523037
      2          6           0        0.167211    0.084529   -1.301026
      3          6           0       -1.126462   -0.048565   -0.543752
      4          6           0       -1.250779   -0.784502    0.647547
      5          6           0       -2.497984   -0.949191    1.250725
      6          6           0       -3.630961   -0.361072    0.685275
      7          6           0       -3.518225    0.368526   -0.502681
      8          6           0       -2.279245    0.507186   -1.120962
      9          6           0        1.484548    0.101829   -0.570337
     10          6           0        1.668173    0.623572    0.719745
     11          6           0        2.954591    0.662938    1.251800
     12          6           0        4.010173    0.163171    0.483922
     13          7           0        3.861827   -0.334847   -0.749483
     14          6           0        2.630073   -0.345343   -1.255658
     15          1           0       -0.377280   -1.259949    1.080298
     16          1           0       -2.584048   -1.536314    2.160550
     17          1           0       -4.599555   -0.476971    1.163770
     18          1           0       -4.398705    0.821232   -0.949602
     19          1           0       -2.175963    1.045641   -2.056330
     20          1           0        0.825034    1.016218    1.278029
     21          1           0        3.139530    1.074788    2.239784
     22          1           0        5.027281    0.172587    0.874370
     23          1           0        2.515995   -0.736440   -2.262949
 ---------------------------------------------------------------------
                    Distance matrix (angstroms):
                    1          2          3          4          5
     1  O    0.000000
     2  C    1.226701   0.000000
     3  C    2.369917   1.504915   0.000000
     4  C    3.602741   2.561806   1.405793   0.000000
     5  C    4.751671   3.831876   2.431532   1.395158   0.000000
     6  C    4.992973   4.309299   2.807255   2.417846   1.396157
     7  C    4.195742   3.781594   2.428206   2.791739   2.419030
     8  C    2.826699   2.489219   1.403901   2.419468   2.791734
     9  C    2.364169   1.506513   2.615472   3.122633   4.503495
    10  C    3.604602   2.574290   3.139773   3.241630   4.484683
    11  C    4.723465   3.823737   4.515001   4.488356   5.685906
    12  C    4.889448   4.237992   5.242705   5.348128   6.646912
    13  N    4.142977   3.759023   5.000730   5.319081   6.695180
[...]
 0060476,-0.00028152,0.00005466,-0.00008954,0.00009316,0.00004186,-0.00
 016551,-0.00009591,0.00004113,-0.00009307,-0.00020314,0.00008576,-0.00
 002399,-0.00023967,-0.00042746,0.00019029,0.06456473,-0.09882255,-0.04
 466107,0.00179999,-0.00277567,-0.02463214,0.01015226,-0.01125268,0.000
 42651,-0.01780928,0.00518346,-0.00165112,0.00625930,-0.07553106,-0.019
 52943,-0.06323744,0.24563741,0.00023218,-0.00094129,-0.00757215,-0.009
 33024,0.00689227,0.02345103,-0.00304399,-0.00141691,-0.00322188,-0.000
 15941,-0.00001659,-0.00001832,-0.00016232,0.00028310,0.00014093,-0.000
 05689,-0.00006069,0.00006708,-0.00016215,0.00034939,0.00003350,-0.0006
 5306,-0.00040166,0.00081069,0.09332695,-0.05168024,-0.17633387,0.02487
 151,-0.01765382,-0.02530375,-0.00029230,0.00296166,-0.00120738,-0.0466
 0378,-0.00875140,-0.04007306,-0.10300086,-0.01724403,-0.15452977,0.060
 84906,0.19312298,0.69146319,0.00031367,0.00006501,-0.00060933,-0.00049
 416,-0.00062918,0.00050274,0.00575780,-0.00092906,0.00048446,-0.246222
 83,0.09641766,-0.09262346,-0.01831827,0.01219320,-0.01347864,-0.003112
 57,-0.00069819,0.00417379,0.00008617,-0.00050360,0.00072881,0.00126181
 ,0.00003806,0.00128400,-0.00063476,-0.00043634,0.00082293,-0.00132522,
 -0.00177818,-0.00028164,0.00001840,-0.00022140,0.00009471,-0.00013875,
 0.00022034,0.00016226,-0.00021567,-0.00024152,-0.00013364,0.00041280,0
 .00015436,-0.00010994,0.26302455,-0.00014678,0.00058606,-0.00061046,0.
 00044712,-0.00269981,-0.00188504,0.01405872,-0.00325316,0.00473704,0.0
 9606512,-0.08961803,0.05800849,-0.00425165,0.00507771,-0.00177470,-0.0
 0042350,0.00552769,0.00318290,-0.00054905,-0.00047457,0.00018251,-0.00
 042191,0.00331634,0.00516564,-0.00067540,0.00031013,0.00051152,-0.0007
 1730,-0.00011138,0.00037463,-0.00007646,-0.00004416,-0.00027659,-0.000
 09216,0.00000228,-0.00001149,0.00011151,-0.00017777,-0.00001428,-0.000
 19156,0.00024167,-0.00016552,-0.10311665,0.08551291,0.00064696,0.00030
 608,-0.00050392,-0.00274128,-0.00191122,0.00007864,-0.02283071,0.00980
 597,-0.00763114,-0.09248719,0.05730786,-0.10225562,0.01295191,-0.00632
 068,0.00999551,0.00318833,0.00343749,0.00090567,0.00060438,0.00000920,
 -0.00047097,0.00242053,0.00506076,-0.00279785,0.00000247,0.00002849,0.
 00021796,-0.00002077,-0.00013165,0.00035558,0.00025214,-0.00006456,0.0
 0009207,-0.00011042,0.00022723,0.00027629,-0.00034720,-0.00013060,-0.0
 0033055,0.00072516,-0.00017376,-0.00016024,0.09953558,-0.06499687,0.10
 249577,-0.00063128,-0.00000283,0.00067823,0.00122644,-0.00070205,0.000
 66920,-0.00501068,0.00068343,0.00205960,0.00240424,-0.01575955,0.02562
 445,-0.06070976,-0.00555131,0.01647580,0.00629186,0.01401270,-0.024152
 05,-0.00429182,0.00245377,-0.00099679,-0.00122557,0.00016799,-0.000153
 58,-0.00010289,0.00008412,0.00002949,-0.00003269,0.00003442,0.00006595
 ,-0.00002300,0.00000392,-0.00001068,-0.00001128,-0.00000151,0.00000435
 ,-0.00005320,0.00000577,-0.00002957,0.00001205,-0.00001214,-0.00005499
 ,0.00099129,-0.00039815,-0.00069503,0.05992091,-0.00033061,-0.00027152
 ,0.00013742,0.00053671,0.00051549,0.00015767,0.00001482,0.00572227,0.0
 0233421,0.00035128,0.00054034,0.00242846,-0.00512557,-0.11564640,0.133
 23928,-0.00256866,-0.00308218,0.00977505,0.00304087,0.00464762,0.00303
 492,0.00045750,-0.00008498,-0.00060364,-0.00008477,-0.00003335,0.00001
 024,-0.00006685,0.00000933,0.00006243,0.00000943,0.00000243,0.00000636
 ,-0.00000435,0.00000979,0.00001512,-0.00003894,-0.00000192,-0.00003262
 ,0.00001967,-0.00001366,-0.00003450,-0.00073219,-0.00253954,-0.0020997
 4,0.00532922,0.11365905,0.00032630,-0.00010056,-0.00048739,-0.00111662
 ,0.00051040,0.00017262,0.00349924,0.00255952,0.00225138,-0.00125332,0.
 00655886,-0.00825935,0.01668682,0.13299596,-0.25948474,0.00266892,0.00
 565750,-0.00762274,-0.00212215,0.00319228,0.00242151,-0.00000286,-0.00
 045169,0.00037400,0.00011584,-0.00005211,-0.00001426,0.00001720,-0.000
 00637,-0.00004921,0.00004480,-0.00001568,-0.00000890,-0.00000897,0.000
 00783,0.00000638,0.00007783,-0.00001352,0.00001828,-0.00004347,0.00002
 433,0.00007535,-0.00021035,-0.00211609,-0.00039533,-0.01825312,-0.1465
 7612,0.27210432,-0.00009015,0.00001385,0.00013849,0.00020045,-0.000148
 75,-0.00020086,0.00028167,0.00027420,-0.00069789,-0.00238689,0.0033980
 8,-0.00281561,-0.01825718,-0.00460154,0.01385368,-0.27951011,-0.025327
 89,0.11252160,0.00231467,0.00073105,-0.00098418,0.00169987,0.00067238,
 0.00034817,-0.00009301,-0.00000709,0.00001971,-0.00001821,-0.00003369,
 0.00003279,-0.00000341,0.00000310,0.00004061,0.00001517,0.00000884,0.0
 0001335,-0.00007476,-0.00000196,-0.00002126,0.00007270,-0.00002589,-0.
 00005895,-0.00098929,-0.00026673,0.00071245,0.00089559,-0.00050091,-0.
 00056221,0.29524459,0.00000854,0.00021141,-0.00014457,-0.00008410,-0.0
 0094374,-0.00051438,0.00035018,-0.00085423,0.00041771,0.00277720,0.004
 46738,0.00412317,0.01131067,0.00508858,-0.00627609,-0.02542138,-0.0478
 7050,0.02448180,-0.01502662,0.00204796,0.00642741,0.00123395,0.0037840
 4,0.00552327,-0.00014583,0.00007796,0.00004051,-0.00001740,0.00001348,
 0.00006581,0.00002465,-0.00000803,-0.00000712,-0.00001205,0.00001526,0
 .00003129,-0.00004186,-0.00003016,-0.00002187,0.00003664,0.00001736,-0
 .00005603,0.00057086,0.00012606,-0.00027971,-0.00086253,-0.00250410,-0
 .00204643,0.02640326,0.03887557,0.00027150,0.00002057,0.00004949,-0.00
 019973,-0.00054329,-0.00043055,-0.00075725,0.00011762,-0.00058665,-0.0
 0201320,0.00409819,0.00110112,-0.01308141,-0.00179463,0.00997050,0.112
 54482,0.02439856,-0.11120573,0.02596643,0.00189260,-0.00729435,-0.0004
 6543,0.00579660,-0.00269827,-0.00002707,0.00004031,0.00001462,-0.00001
 310,-0.00000797,0.00000617,0.00004484,-0.00001422,0.00000614,-0.000014
 34,0.00001927,0.00003103,-0.00000585,-0.00002531,-0.00001417,0.0000386
 8,0.00000816,-0.00000421,-0.00073438,-0.00008380,0.00038059,0.00005626
 ,-0.00209206,-0.00036745,-0.12218006,-0.02986638,0.11151869,0.00001454
 ,-0.00010745,0.00050091,-0.00018052,0.00073001,-0.00172248,-0.00309344
 ,-0.00047408,0.00443081,0.00012368,-0.00050537,0.00079242,0.00141189,0
 .00021582,0.00118957,0.00569485,-0.00196695,0.00248345,-0.24954537,0.0
 9084132,-0.09503726,-0.01907097,0.01151180,-0.01366105,-0.00034037,-0.
 00011343,0.00034126,-0.00001557,0.00002103,0.00007276,-0.00004712,0.00
 002907,-0.00000414,0.00002644,-0.00000554,-0.00000406,-0.00011947,0.00
 004673,0.00000152,-0.00001797,-0.00007504,-0.00016712,-0.00003813,-0.0
 0009421,-0.00021209,0.00020088,-0.00011783,0.00021687,0.00070118,-0.00
 035157,-0.00064373,0.26331522,0.00023547,0.00000637,-0.00008507,-0.000
 37301,0.00038173,-0.00003081,0.00008940,0.00568255,0.00339369,-0.00048
 836,-0.00018873,0.00006028,-0.00039061,0.00393954,0.00522727,0.0137736
 7,-0.00285883,0.00530996,0.09070576,-0.08361392,0.05479415,-0.00425131
 ,0.00445615,-0.00187495,0.00012247,-0.00017623,0.00003234,0.00001514,-
 0.00004032,-0.00006018,-0.00002293,0.00003465,-0.00001983,0.00000002,-
 0.00000431,-0.00002669,0.00003301,0.00000113,0.00000699,-0.00003032,0.
 00002288,0.00001952,-0.00009694,-0.00091367,-0.00064458,0.00072993,-0.
 00003252,0.00036824,-0.00071390,-0.00243240,-0.00201402,-0.09880161,0.
 07867295,-0.00006153,0.00003853,-0.00008608,0.00057007,-0.00017712,0.0
 0067351,0.00327822,0.00315696,0.00094438,0.00080240,0.00012394,-0.0007
 9330,0.00225048,0.00517244,-0.00257004,-0.02468061,0.00976308,-0.00717
 502,-0.09487799,0.05495976,-0.10394860,0.01305756,-0.00640080,0.009997
 82,0.00022833,-0.00001825,-0.00013960,0.00001608,-0.00005087,-0.000045
 64,-0.00001668,0.00001018,0.00000915,0.00000658,-0.00000273,-0.0000173
 5,0.00002562,-0.00002488,0.00000114,0.00003679,0.00004019,0.00004329,-
 0.00017849,-0.00057763,-0.00023036,-0.00127707,0.00066003,-0.00038797,
 -0.00002383,-0.00213405,-0.00011322,0.10165657,-0.06247181,0.10412538,
 -0.00015763,-0.00095138,0.00177291,0.00032551,0.00033643,-0.00351739,0
 .00624045,0.01262623,-0.02295853,-0.00472545,0.00234774,-0.00109903,-0
 .00107020,0.00012199,-0.00005765,-0.00464769,0.00084517,0.00229669,0.0
 0277591,-0.01395237,0.02529818,-0.06077438,-0.00903703,0.01946510,0.00
 028640,0.00017661,0.00044593,0.00018551,-0.00004419,-0.00014698,0.0000
 7548,0.00000076,0.00005246,-0.00000346,0.00002511,0.00003200,0.0000616
 8,0.00000347,0.00005190,-0.00003841,-0.00003347,0.00004245,0.00021327,
 0.00094467,-0.00127575,0.00012965,-0.00018664,-0.00006688,-0.00000221,
 -0.00078948,0.00120969,0.00098651,-0.00047917,-0.00079169,0.06016420,-
 0.00057834,0.00037828,-0.00141118,-0.00119853,-0.00276738,-0.00047304,
 -0.00217696,-0.00208129,0.01115375,0.00300098,0.00403533,0.00246458,0.
 00000873,-0.00021280,-0.00037265,0.00046661,0.00600869,0.00283549,0.00
 073444,0.00254443,0.00193284,-0.00705394,-0.10924859,0.12787605,-0.000
 11070,0.00025224,-0.00009455,-0.00006478,0.00004667,0.00009290,-0.0000
 5504,-0.00004267,-0.00003346,0.00001499,-0.00001478,-0.00001554,-0.000
 04855,-0.00003720,0.00001976,-0.00002849,0.00007555,-0.00010148,-0.000
 02574,0.00022570,0.00075300,-0.00016717,-0.00088651,-0.00051018,0.0000
 7644,-0.00007165,0.00003876,-0.00076360,-0.00289856,-0.00207795,0.0079
 3788,0.10472108,0.00218592,-0.00056845,0.00121888,0.00102447,-0.001282
 62,-0.00351596,-0.00067348,0.00672531,-0.00817253,-0.00192286,0.002480
 08,0.00164338,0.00003098,-0.00046739,0.00046484,0.00272668,0.00234569,
 0.00220766,-0.00091111,0.00577306,-0.00664423,0.01883765,0.12868880,-0
 .27258995,-0.00022990,0.00003755,0.00006183,-0.00006037,0.00001545,0.0
 0004895,-0.00000967,-0.00001695,-0.00001426,0.00001683,-0.00000121,0.0
 0000371,-0.00006470,0.00000972,0.00002436,0.00001818,-0.00000887,-0.00
 009713,0.00029214,0.00044549,-0.00024796,-0.00005150,-0.00044723,-0.00
 033570,-0.00015114,0.00025340,-0.00036490,-0.00023417,-0.00199630,-0.0
 0029412,-0.02082805,-0.14201673,0.28661166,0.00021675,-0.00005953,0.00
 058102,-0.00018839,-0.00058057,-0.00055614,-0.00040441,-0.00015764,-0.
 00065523,-0.00097399,-0.00154178,0.00012632,-0.00013056,-0.00017259,-0
 .00009803,-0.00008676,0.00013209,-0.00002908,-0.00013001,-0.00009959,0
 .00005485,0.00024612,0.00019103,0.00011483,0.00771346,-0.00147273,-0.0
 0153773,-0.22921406,0.08168184,0.11222542,-0.01725035,0.01101276,0.016
 92251,-0.00367144,0.00023379,-0.00461009,-0.00003811,-0.00073286,-0.00
 020941,0.00133124,0.00029356,-0.00193348,-0.00061938,-0.00030316,-0.00
 025077,0.00002408,0.00000772,-0.00001968,0.00001060,0.00003427,0.00000
 679,0.00000853,-0.00005230,-0.00002441,-0.00000263,0.00001457,0.000013
 72,0.24272987,0.00016747,0.00044194,0.00095761,-0.00055780,-0.00326464
 ,0.00121324,-0.00072774,0.00044892,-0.00069580,-0.00048044,0.00002533,
 -0.00021594,-0.00013245,-0.00003705,0.00022351,-0.00001539,-0.00001379
 ,0.00002895,0.00000835,-0.00010647,0.00002313,0.00004249,0.00009379,0.
 00027436,0.01030950,0.00019181,-0.00478002,0.08090858,-0.07981345,-0.0
 5959449,-0.00065125,0.00512058,-0.00025319,0.00043000,0.00790988,-0.00
 251069,-0.00072381,-0.00356464,0.00120646,-0.00030207,0.00646732,-0.00
 456787,-0.00029575,-0.00105432,-0.00017866,-0.00001666,0.00000876,-0.0
 0000852,0.00004871,-0.00000895,0.00000115,-0.00000222,-0.00003269,0.00
 000800,0.00005217,-0.00001864,0.00002576,-0.08793263,0.07109342,-0.000
 65801,-0.00007941,-0.00055467,0.00289792,0.00141392,0.00080066,-0.0000
 8764,0.00006233,0.00012507,0.00003721,0.00025670,0.00023974,-0.0003295
 4,0.00005806,0.00020042,0.00019863,-0.00024271,0.00020822,0.00022998,0
 .00011787,-0.00029320,-0.00062114,0.00014719,-0.00005652,0.02326625,-0
 .01004866,-0.01080607,0.11195843,-0.05901510,-0.13464570,-0.01117867,0
 .00459227,0.01177690,-0.00355043,-0.00294567,0.00061700,-0.00006943,0.
 00151146,-0.00056099,-0.00313890,-0.00452004,-0.00419346,0.00027263,-0
 .00006448,0.00027203,0.00002550,0.00003923,-0.00002521,0.00002734,-0.0
 0001210,-0.00000461,0.00001701,0.00001061,0.00001090,0.00003180,-0.000
 03133,-0.00001075,-0.12088683,0.06709019,0.13695017,-0.00067310,0.0001
 6581,-0.00067637,0.00135079,-0.00061936,-0.00077099,-0.00014158,0.0001
 1013,-0.00001266,-0.00004958,0.00004408,-0.00004631,-0.00001478,0.0000
 0503,0.00000445,-0.00002567,0.00000213,0.00000656,-0.00001285,-0.00000
 632,0.00001938,0.00000128,-0.00002521,0.00007142,-0.00520115,0.0013605
 5,-0.00170112,-0.00007087,-0.01157273,-0.02854819,-0.06706706,-0.01237
 075,-0.04354334,0.01057188,0.00798166,0.02351754,-0.00321197,0.0031598
 4,0.00331018,-0.00217990,0.00022166,-0.00018462,0.00002619,-0.00000894
 ,-0.00003225,-0.00001880,-0.00001743,0.00001096,-0.00000518,-0.0000029
 0,0.00000197,-0.00001269,-0.00000201,0.00000257,0.00002853,-0.00001499
 ,-0.00000777,0.00110399,-0.00056857,0.00074609,0.06492856,-0.00025760,
 -0.00023676,-0.00007360,0.00034254,0.00070337,-0.00008624,-0.00003346,
 -0.00006885,-0.00001081,-0.00006652,-0.00000130,-0.00004391,0.00001495
 ,0.00000867,-0.00000624,-0.00000738,0.00000388,0.00000078,-0.00000259,
 -0.00000348,0.00001322,0.00000697,-0.00001370,0.00002160,0.00114004,0.
 00710801,-0.00179266,0.00014138,0.00233485,0.00098452,-0.01210921,-0.0
 7498412,-0.10081577,-0.00469944,-0.00257481,-0.00853431,0.00294822,0.0
 0605337,-0.00391334,0.00095852,-0.00004931,0.00065660,0.00000072,0.000
 01248,-0.00002729,-0.00001355,-0.00000807,0.00000574,-0.00000113,-0.00
 000172,0.00000051,0.00000007,0.00000164,0.00000260,0.00000982,-0.00000
 679,0.00000123,-0.00082185,-0.00318506,0.00163242,0.01319414,0.0688000
 9,-0.00027688,0.00015139,-0.00034897,0.00109145,-0.00043301,0.00016315
 ,-0.00012622,0.00002943,-0.00000725,-0.00003449,0.00001192,-0.00003121
 ,-0.00002295,0.00001522,-0.00001120,-0.00001748,-0.00000032,0.00000616
 ,-0.00001113,-0.00000450,0.00001993,0.00001076,-0.00002341,0.00006767,
 -0.00291301,-0.00201698,0.00229178,0.00013669,-0.00361471,-0.00669267,
 -0.04358377,-0.10054318,-0.29647374,-0.00676288,-0.00377155,-0.0116538
 7,0.00295269,-0.00378030,0.00012857,0.00079028,0.00031033,0.00098172,0
 .00001425,0.00001762,-0.00002719,-0.00000960,-0.00000743,0.00001243,-0
 .00000963,-0.00000242,0.00000290,-0.00001632,-0.00000050,-0.00000053,0
 .00002035,-0.00001118,-0.00000769,0.00009319,0.00169891,0.00013043,0.0
 4809980,0.11018025,0.31171629,-0.00009484,0.00006694,-0.00005230,0.000
 10825,-0.00029155,0.00020704,-0.00011298,0.00002566,-0.00002910,-0.000
 02728,-0.00004508,-0.00003802,0.00000703,0.00000788,-0.00004276,-0.000
 01297,0.00001051,-0.00000707,-0.00001972,-0.00000704,0.00001635,0.0000
 1933,-0.00002293,0.00006050,0.00044879,0.00000188,0.00052529,-0.001944
 60,0.00297231,0.00327630,-0.01692101,-0.00033599,-0.01077287,-0.303375
 83,0.00980859,-0.08596635,0.00259407,-0.00398755,-0.00766507,0.0027033
 1,0.00136493,0.00038966,0.00000805,0.00005989,-0.00002098,-0.00000473,
 -0.00000344,0.00001107,-0.00001154,0.00000134,0.00000345,-0.00001396,0
 .00000026,-0.00000141,0.00000979,-0.00000055,-0.00000312,-0.00094575,-
 0.00017349,-0.00060727,0.00046821,-0.00037348,0.00056507,0.31716727,0.
 00011535,0.00019754,0.00044518,-0.00068370,-0.00168229,0.00036700,-0.0
 0022487,0.00029780,-0.00013035,0.00000625,0.00001005,-0.00005658,0.000
 03756,-0.00001829,-0.00001163,-0.00001447,0.00002073,-0.00002677,-0.00
 004033,-0.00001630,-0.00000453,-0.00000852,0.00000598,0.00009036,0.000
 46332,-0.00109285,-0.00033425,0.00232087,0.00541959,-0.00399504,0.0108
 6189,0.00647204,0.00343263,0.00992398,-0.04493426,-0.00227097,-0.01325
 974,-0.00360083,-0.00616679,0.00028792,0.00833468,-0.00481720,0.000043
 57,0.00000087,-0.00000069,-0.00000036,-0.00000100,0.00000069,0.0000019
 0,0.00000371,0.00000260,-0.00000721,-0.00000844,0.00000074,0.00000151,
 0.00001105,0.00000241,0.00043014,-0.00045379,0.00047546,-0.00078427,-0
 .00232682,0.00118251,-0.00917030,0.03288755,-0.00024290,-0.00004710,-0
 .00006043,0.00039086,0.00079209,-0.00005924,-0.00002048,-0.00012838,0.
 00000898,-0.00000354,0.00002694,0.00000605,-0.00004416,0.00002109,0.00
 001696,0.00000207,-0.00001790,0.00002349,0.00002015,0.00000994,0.00000
 510,-0.00002488,-0.00000684,0.00000632,-0.00039128,0.00022558,-0.00070
 547,0.00239244,-0.00381570,-0.00091641,0.01659791,-0.00116573,0.010869
 73,-0.08505495,-0.00256044,-0.08428717,-0.03183099,-0.00179980,-0.0213
 9435,-0.00144083,-0.00496886,-0.00282026,-0.00000551,-0.00001482,-0.00
 000892,-0.00000447,-0.00000348,0.00000527,-0.00000399,-0.00000377,0.00
 000077,-0.00000569,0.00000398,0.00000033,0.00001355,-0.00001387,-0.000
 00361,0.00097363,0.00019626,0.00034113,-0.00039550,0.00129884,0.000067
 97,0.10011425,0.01210897,0.09910853,-0.00005852,-0.00044530,-0.0018803
 9,0.00049038,-0.00025114,0.00371598,0.00018396,0.00004739,-0.00036972,
 0.00013480,-0.00004527,0.00009994,0.00004581,0.00000922,-0.00003458,0.
 00001696,0.00001419,-0.00002604,-0.00002310,0.00003749,-0.00003639,-0.
 00001441,-0.00001336,-0.00004810,0.00566149,0.00953140,0.02255711,-0.0
 0465313,0.00236804,0.00137414,-0.00062477,-0.00030213,-0.00051722,-0.0
 0357054,0.00125754,-0.00347241,-0.00893574,-0.01235222,-0.03455035,-0.
 05687026,-0.00450526,-0.01373771,-0.00000496,0.00004658,-0.00001548,0.
 00001872,0.00001097,-0.00001621,0.00000545,0.00000416,-0.00000888,0.00
 001186,-0.00000267,0.00000243,-0.00006082,0.00003277,0.00000127,0.0002
 7121,0.00061299,0.00141906,0.00020577,-0.00037113,0.00000983,-0.000048
 90,-0.00030053,-0.00103567,0.06781873,-0.00004575,0.00006550,0.0011160
 7,-0.00044409,-0.00195618,0.00032280,-0.00004805,-0.00006058,0.0002299
 1,-0.00013744,0.00005072,-0.00009125,-0.00005254,-0.00000880,0.0000535
 5,-0.00000607,-0.00001373,0.00002815,0.00001179,-0.00004637,0.00001056
 ,0.00001437,0.00004605,0.00009462,-0.00274393,0.00377407,-0.01119546,0
 .00308876,0.00491865,-0.00218516,-0.00016259,-0.00044973,0.00032022,0.
 00218803,0.00948879,-0.00275375,-0.00384371,-0.00177724,0.00355198,-0.
 00218577,-0.07944727,-0.09637631,0.00000099,-0.00005347,0.00002393,-0.
 00001748,-0.00000936,0.00001591,-0.00000235,-0.00000330,0.00000677,-0.
 00000974,0.00000103,-0.00000035,0.00004418,-0.00001216,0.00000179,-0.0
 0010455,-0.00024824,-0.00044824,-0.00025154,-0.00156555,0.00061194,0.0
 0009123,0.00047329,-0.00013700,0.00461626,0.06683388,-0.00195294,0.000
 48971,0.00173334,-0.00111927,0.00111165,-0.00314516,0.00013002,-0.0000
 1205,0.00012689,0.00002308,0.00002860,0.00002241,-0.00000206,0.0000032
 2,0.00000149,-0.00000538,-0.00000194,0.00000151,0.00001554,-0.00001961
 ,0.00001278,0.00000650,0.00002290,-0.00003123,-0.00051325,-0.00648024,
 -0.01044625,0.00232057,-0.00241847,0.00034101,0.00031825,0.00025899,0.
 00034662,-0.00150055,-0.00244059,0.00299566,-0.00979368,-0.00064531,-0
 .00959098,-0.01437236,-0.09672250,-0.30153129,-0.00000291,-0.00003410,
 -0.00001005,-0.00000038,-0.00000361,-0.00000330,0.00000142,0.00000056,
 0.00000210,0.00000497,-0.00000230,-0.00000409,0.00000894,-0.00000400,0
 .00001352,-0.00030140,-0.00014235,-0.00052147,0.00012818,0.00050590,-0
 .00033468,0.00003734,-0.00029375,-0.00020475,0.02656940,0.10679930,0.3
 2022594\\-0.00000014,-0.00000011,0.00000017,-0.00000022,0.,0.00000005,
 0.00000013,-0.00000016,0.00000013,-0.00000007,0.00000002,-0.00000002,0
 .00000050,0.00000002,0.00000014,-0.00000002,-0.00000006,0.00000017,-0.
 00000023,-0.00000012,0.00000027,0.00000026,-0.00000007,0.00000011,-0.0
 0000021,0.00000015,0.00000007,-0.00000013,0.00000001,-0.00000045,0.000
 00018,0.00000012,-0.00000016,0.00000004,-0.00000007,-0.00000026,-0.000
 00032,0.00000025,-0.00000029,0.00000032,-0.00000019,-0.00000008,0.0000
 0005,0.00000005,0.00000003,0.00000009,0.00000002,0.00000021,0.00000004
 ,-0.00000007,0.00000032,-0.00000013,-0.00000010,0.00000024,-0.00000020
 ,-0.00000009,0.00000005,0.00000009,0.00000004,-0.00000006,0.00000015,0
 .00000016,-0.00000024,0.00000003,0.00000020,-0.00000027,-0.00000019,0.
 00000001,-0.00000013\\\@


 If your ship doesn't come in, swim out to it!
                          -- Jonathan Winters
 Job cpu time:       0 days  0 hours  0 minutes 54.4 seconds.
 Elapsed time:       0 days  0 hours  1 minutes  6.8 seconds.
 File lengths (MBytes):  RWF=    144 Int=      0 D2E=      0 Chk=      8 Scr=      1
 Normal termination of Gaussian 16 at Sat Nov 16 07:29:37 2024.
