 Entering Gaussian System, Link 0=g16
 Input=/Volumes/SSD-PSM960U3-UW/CoMFA_calc/RYMBAPVTUHZCNF-UHFFFAOYSA-N/opt3.gjf
 Output=/Volumes/SSD-PSM960U3-UW/CoMFA_calc/RYMBAPVTUHZCNF-UHFFFAOYSA-N/opt3.log
 Initial command:
 /Applications/g16/l1.exe "/Users/mac_poclab/PycharmProjects/CoMFA_model/Gau-19164.inp" -scrdir="/Users/mac_poclab/PycharmProjects/CoMFA_model/"
 Entering Link 1 = /Applications/g16/l1.exe PID=     19165.
  
 Copyright (c) 1988,1990,1992,1993,1995,1998,2003,2009,2016,
            Gaussian, Inc.  All Rights Reserved.
  
 This is part of the Gaussian(R) 16 program.  It is based on
 the Gaussian(R) 09 system (copyright 2009, Gaussian, Inc.),
 the Gaussian(R) 03 system (copyright 2003, Gaussian, Inc.),
 the Gaussian(R) 98 system (copyright 1998, Gaussian, Inc.),
 the Gaussian(R) 94 system (copyright 1995, Gaussian, Inc.),
 the Gaussian 92(TM) system (copyright 1992, Gaussian, Inc.),
 the Gaussian 90(TM) system (copyright 1990, Gaussian, Inc.),
 the Gaussian 88(TM) system (copyright 1988, Gaussian, Inc.),
 the Gaussian 86(TM) system (copyright 1986, Carnegie Mellon
 University), and the Gaussian 82(TM) system (copyright 1983,
 Carnegie Mellon University). Gaussian is a federally registered
 trademark of Gaussian, Inc.
  
 This software contains proprietary and confidential information,
 including trade secrets, belonging to Gaussian, Inc.
  
 This software is provided under written license and may be
 used, copied, transmitted, or stored only in accord with that
 written license.
  
 The following legend is applicable only to US Government
 contracts under FAR:
  
                    RESTRICTED RIGHTS LEGEND
  
 Use, reproduction and disclosure by the US Government is
 subject to restrictions as set forth in subparagraphs (a)
 and (c) of the Commercial Computer Software - Restricted
 Rights clause in FAR 52.227-19.
  
 Gaussian, Inc.
 340 Quinnipiac St., Bldg. 40, Wallingford CT 06492
  
  
 ---------------------------------------------------------------
 Warning -- This program may not be used in any manner that
 competes with the business of Gaussian, Inc. or will provide
 assistance to any competitor of Gaussian, Inc.  The licensee
 of this program is prohibited from giving any competitor of
 Gaussian, Inc. access to this program.  By using this program,
 the user acknowledges that Gaussian, Inc. is engaged in the
 business of creating and licensing software in the field of
 computational chemistry and represents and warrants to the
 licensee that it is not a competitor of Gaussian, Inc. and that
 it will not use this program in any manner prohibited above.
 ---------------------------------------------------------------
  

 Cite this work as:
 Gaussian 16, Revision A.03,
 M. J. Frisch, G. W. Trucks, H. B. Schlegel, G. E. Scuseria, 
 M. A. Robb, J. R. Cheeseman, G. Scalmani, V. Barone, 
 G. A. Petersson, H. Nakatsuji, X. Li, M. Caricato, A. V. Marenich, 
 J. Bloino, B. G. Janesko, R. Gomperts, B. Mennucci, H. P. Hratchian, 
 J. V. Ortiz, A. F. Izmaylov, J. L. Sonnenberg, D. Williams-Young, 
 F. Ding, F. Lipparini, F. Egidi, J. Goings, B. Peng, A. Petrone, 
 T. Henderson, D. Ranasinghe, V. G. Zakrzewski, J. Gao, N. Rega, 
 G. Zheng, W. Liang, M. Hada, M. Ehara, K. Toyota, R. Fukuda, 
 J. Hasegawa, M. Ishida, T. Nakajima, Y. Honda, O. Kitao, H. Nakai, 
 T. Vreven, K. Throssell, J. A. Montgomery, Jr., J. E. Peralta, 
 F. Ogliaro, M. J. Bearpark, J. J. Heyd, E. N. Brothers, K. N. Kudin, 
 V. N. Staroverov, T. A. Keith, R. Kobayashi, J. Normand, 
 K. Raghavachari, A. P. Rendell, J. C. Burant, S. S. Iyengar, 
 J. Tomasi, M. Cossi, J. M. Millam, M. Klene, C. Adamo, R. Cammi, 
 J. W. Ochterski, R. L. Martin, K. Morokuma, O. Farkas, 
 J. B. Foresman, and D. J. Fox, Gaussian, Inc., Wallingford CT, 2016.
 
 ******************************************
 Gaussian 16:  EM64M-G16RevA.03 25-Dec-2016
                16-Nov-2024 
 ******************************************
 %nprocshared=30
 Will use up to   30 processors via shared memory.
 %mem=30GB
 %chk= 3.chk
 -------------------------------
 # freq opt=tight b3lyp 6-31g(d)
 -------------------------------
 1/7=10,18=20,19=15,26=3,38=1/1,3;
 2/9=110,12=2,17=6,18=5,40=1/2;
 3/5=1,6=6,7=1,11=2,25=1,30=1,71=1,74=-5/1,2,3;
 4//1;
 5/5=2,38=5/2;
 6/7=2,8=2,9=2,10=2,28=1/1;
 7//1,2,3,16;
 1/7=10,18=20,19=15,26=3/3(2);
 2/9=110/2;
 99//99;
 2/9=110/2;
 3/5=1,6=6,7=1,11=2,25=1,30=1,71=1,74=-5/1,2,3;
 4/5=5,16=3,69=1/1;
 5/5=2,38=5/2;
 7//1,2,3,16;
 1/7=10,18=20,19=15,26=3/3(-5);
 2/9=110/2;
 6/7=2,8=2,9=2,10=2,19=2,28=1/1;
 99/9=1/99;
 ---------
 good luck
 ---------
 Symbolic Z-matrix:
 Charge =  0 Multiplicity = 1
 O                     0.387    -1.74207  -1.6634 
 C                     0.25477  -0.844    -0.83586 
 C                    -1.10655  -0.48754  -0.36503 
 C                    -1.3554   -0.13536   0.96726 
 C                    -2.65353   0.18495   1.37006 
 C                    -3.70237   0.14132   0.45105 
 C                    -3.46019  -0.23162  -0.87088 
 C                    -2.16488  -0.55245  -1.27866 
 C                     1.45855  -0.14539  -0.33632 
 C                     2.67186  -0.83132  -0.25723 
 C                     3.80603  -0.16575   0.20142 
 C                     3.68622   1.16866   0.55676 
 N                     2.53137   1.86682   0.47633 
 C                     1.44514   1.19752   0.01801 
 H                    -0.55863  -0.12348   1.70666 
 H                    -2.85031   0.4597    2.4038 
 H                    -4.71316   0.38723   0.76836 
 H                    -4.28058  -0.27891  -1.58287 
 H                    -1.98192  -0.85388  -2.3083 
 H                     2.73342  -1.87632  -0.55256 
 H                     4.76051  -0.67535   0.2753 
 H                     4.54269   1.72994   0.9206 
 H                     0.54996   1.80731  -0.06447 
 

 GradGradGradGradGradGradGradGradGradGradGradGradGradGradGradGradGradGrad
 Berny optimization.
 Initialization pass.
                           ----------------------------
                           !    Initial Parameters    !
                           ! (Angstroms and Degrees)  !
 --------------------------                            --------------------------
 ! Name  Definition              Value          Derivative Info.                !
 --------------------------------------------------------------------------------
 ! R1    R(1,2)                  1.2283         estimate D2E/DX2                !
 ! R2    R(2,3)                  1.4839         estimate D2E/DX2                !
 ! R3    R(2,9)                  1.4787         estimate D2E/DX2                !
 ! R4    R(3,4)                  1.4003         estimate D2E/DX2                !
 ! R5    R(3,8)                  1.3996         estimate D2E/DX2                !
 ! R6    R(4,5)                  1.3964         estimate D2E/DX2                !
 ! R7    R(4,15)                 1.0871         estimate D2E/DX2                !
 ! R8    R(5,6)                  1.3952         estimate D2E/DX2                !
 ! R9    R(5,16)                 1.0876         estimate D2E/DX2                !
 ! R10   R(6,7)                  1.3947         estimate D2E/DX2                !
 ! R11   R(6,17)                 1.0876         estimate D2E/DX2                !
 ! R12   R(7,8)                  1.3954         estimate D2E/DX2                !
 ! R13   R(7,18)                 1.0873         estimate D2E/DX2                !
 ! R14   R(8,19)                 1.0883         estimate D2E/DX2                !
 ! R15   R(9,10)                 1.396          estimate D2E/DX2                !
 ! R16   R(9,14)                 1.3889         estimate D2E/DX2                !
 ! R17   R(10,11)                1.3927         estimate D2E/DX2                !
 ! R18   R(10,20)                1.0877         estimate D2E/DX2                !
 ! R19   R(11,12)                1.3861         estimate D2E/DX2                !
 ! R20   R(11,21)                1.0845         estimate D2E/DX2                !
 ! R21   R(12,13)                1.3519         estimate D2E/DX2                !
 ! R22   R(12,22)                1.0867         estimate D2E/DX2                !
 ! R23   R(13,14)                1.3557         estimate D2E/DX2                !
 ! R24   R(14,23)                1.0863         estimate D2E/DX2                !
 ! A1    A(1,2,3)              119.2189         estimate D2E/DX2                !
 ! A2    A(1,2,9)              119.0362         estimate D2E/DX2                !
 ! A3    A(3,2,9)              121.7448         estimate D2E/DX2                !
 ! A4    A(2,3,4)              121.6892         estimate D2E/DX2                !
 ! A5    A(2,3,8)              118.387          estimate D2E/DX2                !
 ! A6    A(4,3,8)              119.8902         estimate D2E/DX2                !
 ! A7    A(3,4,5)              119.8227         estimate D2E/DX2                !
 ! A8    A(3,4,15)             121.3078         estimate D2E/DX2                !
 ! A9    A(5,4,15)             118.859          estimate D2E/DX2                !
 ! A10   A(4,5,6)              120.1103         estimate D2E/DX2                !
 ! A11   A(4,5,16)             120.0213         estimate D2E/DX2                !
 ! A12   A(6,5,16)             119.8657         estimate D2E/DX2                !
 ! A13   A(5,6,7)              120.1419         estimate D2E/DX2                !
 ! A14   A(5,6,17)             119.9623         estimate D2E/DX2                !
 ! A15   A(7,6,17)             119.892          estimate D2E/DX2                !
 ! A16   A(6,7,8)              119.9776         estimate D2E/DX2                !
 ! A17   A(6,7,18)             120.0833         estimate D2E/DX2                !
 ! A18   A(8,7,18)             119.9379         estimate D2E/DX2                !
 ! A19   A(3,8,7)              120.0329         estimate D2E/DX2                !
 ! A20   A(3,8,19)             120.2177         estimate D2E/DX2                !
 ! A21   A(7,8,19)             119.7494         estimate D2E/DX2                !
 ! A22   A(2,9,10)             119.638          estimate D2E/DX2                !
 ! A23   A(2,9,14)             122.3508         estimate D2E/DX2                !
 ! A24   A(10,9,14)            117.9697         estimate D2E/DX2                !
 ! A25   A(9,10,11)            119.4467         estimate D2E/DX2                !
 ! A26   A(9,10,20)            120.3893         estimate D2E/DX2                !
 ! A27   A(11,10,20)           120.1639         estimate D2E/DX2                !
 ! A28   A(10,11,12)           118.3012         estimate D2E/DX2                !
 ! A29   A(10,11,21)           120.9701         estimate D2E/DX2                !
 ! A30   A(12,11,21)           120.7282         estimate D2E/DX2                !
 ! A31   A(11,12,13)           123.7635         estimate D2E/DX2                !
 ! A32   A(11,12,22)           120.9931         estimate D2E/DX2                !
 ! A33   A(13,12,22)           115.2424         estimate D2E/DX2                !
 ! A34   A(12,13,14)           116.7184         estimate D2E/DX2                !
 ! A35   A(9,14,13)            123.7691         estimate D2E/DX2                !
 ! A36   A(9,14,23)            122.0969         estimate D2E/DX2                !
 ! A37   A(13,14,23)           114.1294         estimate D2E/DX2                !
 ! D1    D(1,2,3,4)            142.2929         estimate D2E/DX2                !
 ! D2    D(1,2,3,8)            -35.5946         estimate D2E/DX2                !
 ! D3    D(9,2,3,4)            -37.7771         estimate D2E/DX2                !
 ! D4    D(9,2,3,8)            144.3353         estimate D2E/DX2                !
 ! D5    D(1,2,9,10)           -30.5186         estimate D2E/DX2                !
 ! D6    D(1,2,9,14)           147.0901         estimate D2E/DX2                !
 ! D7    D(3,2,9,10)           149.5513         estimate D2E/DX2                !
 ! D8    D(3,2,9,14)           -32.84           estimate D2E/DX2                !
 ! D9    D(2,3,4,5)           -179.5932         estimate D2E/DX2                !
 ! D10   D(2,3,4,15)            -0.7844         estimate D2E/DX2                !
 ! D11   D(8,3,4,5)             -1.7368         estimate D2E/DX2                !
 ! D12   D(8,3,4,15)           177.072          estimate D2E/DX2                !
 ! D13   D(2,3,8,7)            179.6565         estimate D2E/DX2                !
 ! D14   D(2,3,8,19)            -0.2769         estimate D2E/DX2                !
 ! D15   D(4,3,8,7)              1.7298         estimate D2E/DX2                !
 ! D16   D(4,3,8,19)          -178.2037         estimate D2E/DX2                !
 ! D17   D(3,4,5,6)              0.6436         estimate D2E/DX2                !
 ! D18   D(3,4,5,16)          -179.9513         estimate D2E/DX2                !
 ! D19   D(15,4,5,6)          -178.1943         estimate D2E/DX2                !
 ! D20   D(15,4,5,16)            1.2109         estimate D2E/DX2                !
 ! D21   D(4,5,6,7)              0.4635         estimate D2E/DX2                !
 ! D22   D(4,5,6,17)           179.7441         estimate D2E/DX2                !
 ! D23   D(16,5,6,7)          -178.9425         estimate D2E/DX2                !
 ! D24   D(16,5,6,17)            0.338          estimate D2E/DX2                !
 ! D25   D(5,6,7,8)             -0.4736         estimate D2E/DX2                !
 ! D26   D(5,6,7,18)           179.1345         estimate D2E/DX2                !
 ! D27   D(17,6,7,8)          -179.7546         estimate D2E/DX2                !
 ! D28   D(17,6,7,18)           -0.1465         estimate D2E/DX2                !
 ! D29   D(6,7,8,3)             -0.6248         estimate D2E/DX2                !
 ! D30   D(6,7,8,19)           179.309          estimate D2E/DX2                !
 ! D31   D(18,7,8,3)           179.7665         estimate D2E/DX2                !
 ! D32   D(18,7,8,19)           -0.2997         estimate D2E/DX2                !
 ! D33   D(2,9,10,11)          179.372          estimate D2E/DX2                !
 ! D34   D(2,9,10,20)           -0.5178         estimate D2E/DX2                !
 ! D35   D(14,9,10,11)           1.6593         estimate D2E/DX2                !
 ! D36   D(14,9,10,20)        -178.2305         estimate D2E/DX2                !
 ! D37   D(2,9,14,13)         -179.866          estimate D2E/DX2                !
 ! D38   D(2,9,14,23)           -0.6944         estimate D2E/DX2                !
 ! D39   D(10,9,14,13)          -2.2193         estimate D2E/DX2                !
 ! D40   D(10,9,14,23)         176.9522         estimate D2E/DX2                !
 ! D41   D(9,10,11,12)          -0.4294         estimate D2E/DX2                !
 ! D42   D(9,10,11,21)         179.8364         estimate D2E/DX2                !
 ! D43   D(20,10,11,12)        179.4606         estimate D2E/DX2                !
 ! D44   D(20,10,11,21)         -0.2736         estimate D2E/DX2                !
 ! D45   D(10,11,12,13)         -0.4263         estimate D2E/DX2                !
 ! D46   D(10,11,12,22)        179.9642         estimate D2E/DX2                !
 ! D47   D(21,11,12,13)        179.3085         estimate D2E/DX2                !
 ! D48   D(21,11,12,22)         -0.3009         estimate D2E/DX2                !
 ! D49   D(11,12,13,14)         -0.0235         estimate D2E/DX2                !
 ! D50   D(22,12,13,14)        179.6063         estimate D2E/DX2                !
 ! D51   D(12,13,14,9)           1.3903         estimate D2E/DX2                !
 ! D52   D(12,13,14,23)       -177.8407         estimate D2E/DX2                !
 --------------------------------------------------------------------------------
 Trust Radius=3.00D-01 FncErr=1.00D-07 GrdErr=1.00D-06 EigMax=2.50D+02 EigMin=1.00D-04
 Number of steps in this run=    123 maximum allowed number of steps=    138.
 GradGradGradGradGradGradGradGradGradGradGradGradGradGradGradGradGradGrad

                          Input orientation:                          
 ---------------------------------------------------------------------
 Center     Atomic      Atomic             Coordinates (Angstroms)
 Number     Number       Type             X           Y           Z
 ---------------------------------------------------------------------
      1          8           0        0.387000   -1.742074   -1.663404
      2          6           0        0.254769   -0.844004   -0.835862
      3          6           0       -1.106555   -0.487543   -0.365031
      4          6           0       -1.355395   -0.135361    0.967256
      5          6           0       -2.653525    0.184954    1.370060
      6          6           0       -3.702373    0.141320    0.451054
      7          6           0       -3.460186   -0.231624   -0.870883
      8          6           0       -2.164877   -0.552453   -1.278661
      9          6           0        1.458547   -0.145391   -0.336319
     10          6           0        2.671863   -0.831324   -0.257231
     11          6           0        3.806027   -0.165751    0.201417
     12          6           0        3.686216    1.168663    0.556760
     13          7           0        2.531367    1.866824    0.476326
     14          6           0        1.445137    1.197517    0.018007
     15          1           0       -0.558632   -0.123482    1.706656
     16          1           0       -2.850306    0.459698    2.403798
     17          1           0       -4.713156    0.387230    0.768355
     18          1           0       -4.280582   -0.278907   -1.582872
     19          1           0       -1.981920   -0.853882   -2.308298
     20          1           0        2.733417   -1.876322   -0.552557
     21          1           0        4.760507   -0.675345    0.275304
     22          1           0        4.542693    1.729942    0.920597
     23          1           0        0.549964    1.807314   -0.064469
 ---------------------------------------------------------------------
                    Distance matrix (angstroms):
                    1          2          3          4          5
     1  O    0.000000
     2  C    1.228349   0.000000
     3  C    2.343145   1.483897   0.000000
     4  C    3.540881   2.519134   1.400336   0.000000
     5  C    4.707455   3.792495   2.419899   1.396422   0.000000
     6  C    4.974040   4.276212   2.792800   2.418951   1.395191
     7  C    4.208371   3.765252   2.420942   2.796098   2.417864
     8  C    2.841708   2.477047   1.399635   2.423504   2.792538
     9  C    2.336400   1.478744   2.587980   3.101238   4.464302
    10  C    2.833264   2.485421   3.795556   4.266443   5.660446
    11  C    4.201440   3.761304   4.955590   5.218018   6.573776
    12  C    4.928118   4.214861   5.153967   5.223679   6.466951
    13  N    4.711783   3.775357   4.414227   4.399622   5.523636
    14  C    3.547956   2.512743   3.081765   3.243550   4.433098
    15  H    3.856341   2.764990   2.173625   1.087053   2.144063
    16  H    5.645359   4.672957   3.406515   2.156967   1.087576
    17  H    6.038127   5.363742   3.880382   3.404001   2.155236
    18  H    4.892204   4.631065   3.406041   3.883359   3.403276
    19  H    2.610853   2.677862   2.162581   3.411460   3.880793
    20  H    2.599553   2.699933   4.087696   4.696718   6.079840
    21  H    4.901435   4.643793   5.904889   6.178563   7.543638
    22  H    6.000145   5.300626   6.203554   6.186192   7.373911
    23  H    3.896319   2.776990   2.846184   2.910126   3.866816
                    6          7          8          9         10
     6  C    0.000000
     7  C    1.394725   0.000000
     8  C    2.416015   1.395364   0.000000
     9  C    5.228504   4.948447   3.766020   0.000000
    10  C    6.486801   6.191788   4.951277   1.396028   0.000000
    11  C    7.518822   7.345204   6.163754   2.408368   1.392722
    12  C    7.460419   7.420918   6.369168   2.736209   2.385674
    13  N    6.468193   6.489774   5.566650   2.420815   2.799616
    14  C    5.272565   5.186016   4.216153   1.388931   2.386799
    15  H    3.395551   3.882579   3.417039   2.871104   3.846296
    16  H    2.154203   3.401972   3.880047   5.142041   6.264357
    17  H    1.087582   2.154069   3.401030   6.292369   7.554813
    18  H    2.155869   1.087296   2.154897   5.874464   7.099224
    19  H    3.400648   2.153750   1.088341   4.028334   5.085772
    20  H    6.818908   6.416158   5.125733   2.160596   1.087671
    21  H    8.504009   8.312065   7.098652   3.399687   2.161101
    22  H    8.409834   8.432272   7.418730   3.822129   3.383396
    23  H    4.596049   4.570435   3.796462   2.170825   3.391463
                   11         12         13         14         15
    11  C    0.000000
    12  C    1.386104   0.000000
    13  N    2.414890   1.351878   0.000000
    14  C    2.732387   2.305108   1.355700   0.000000
    15  H    4.617118   4.583736   3.875967   2.934564   0.000000
    16  H    7.039065   6.829370   5.887067   4.968622   2.465335
    17  H    8.555915   8.438297   7.399837   6.256529   4.289674
    18  H    8.281892   8.375163   7.432840   6.125888   4.969715
    19  H    6.346064   6.665359   5.960380   4.622191   4.321931
    20  H    2.155231   3.377920   3.887231   3.381375   4.360514
    21  H    1.084517   2.152599   3.387049   3.816476   5.535934
    22  H    2.157209   1.086722   2.064351   3.270015   5.484212
    23  H    3.816494   3.260349   2.054740   1.086273   2.844968
                   16         17         18         19         20
    16  H    0.000000
    17  H    2.479947   0.000000
    18  H    4.299391   2.481759   0.000000
    19  H    4.968243   4.297185   2.478041   0.000000
    20  H    6.736096   7.894297   7.267012   5.134434   0.000000
    21  H    7.983939   9.545808   9.238575   7.222686   2.497357
    22  H    7.646557   9.353972   9.388984   7.724797   4.295207
    23  H    4.412510   5.514587   5.476499   4.304320   4.309857
                   21         22         23
    21  H    0.000000
    22  H    2.499850   0.000000
    23  H    4.899767   4.113177   0.000000
 Stoichiometry    C12H9NO
 Framework group  C1[X(C12H9NO)]
 Deg. of freedom    63
 Full point group                 C1      NOp   1
 Largest Abelian subgroup         C1      NOp   1
 Largest concise Abelian subgroup C1      NOp   1
                         Standard orientation:                         
 ---------------------------------------------------------------------
 Center     Atomic      Atomic             Coordinates (Angstroms)
 Number     Number       Type             X           Y           Z
 ---------------------------------------------------------------------
      1          8           0       -0.024120    2.311536    0.078061
      2          6           0       -0.016441    1.083779    0.040723
      3          6           0        1.282274    0.366407    0.066535
      4          6           0        1.444583   -0.836238    0.765279
      5          6           0        2.686728   -1.474237    0.770414
      6          6           0        3.766975   -0.908475    0.092521
      7          6           0        3.613071    0.301061   -0.584675
      8          6           0        2.373964    0.942606   -0.593152
      9          6           0       -1.303882    0.359816   -0.030379
     10          6           0       -2.440996    0.913848    0.560312
     11          6           0       -3.654320    0.234875    0.479593
     12          6           0       -3.687458   -0.973190   -0.199203
     13          7           0       -2.609681   -1.529129   -0.796617
     14          6           0       -1.443620   -0.842934   -0.710815
     15          1           0        0.624695   -1.279630    1.324629
     16          1           0        2.816192   -2.408808    1.311375
     17          1           0        4.734399   -1.405307    0.101579
     18          1           0        4.459152    0.748180   -1.100859
     19          1           0        2.260878    1.891912   -1.113264
     20          1           0       -2.382354    1.868541    1.078144
     21          1           0       -4.552410    0.641257    0.931772
     22          1           0       -4.610472   -1.539802   -0.288417
     23          1           0       -0.614626   -1.308646   -1.236051
 ---------------------------------------------------------------------
 Rotational constants (GHZ):           1.6952937           0.4140600           0.3583908
 Standard basis: 6-31G(d) (6D, 7F)
 There are   228 symmetry adapted cartesian basis functions of A   symmetry.
 There are   228 symmetry adapted basis functions of A   symmetry.
   228 basis functions,   428 primitive gaussians,   228 cartesian basis functions
    48 alpha electrons       48 beta electrons
       nuclear repulsion energy       778.9663415180 Hartrees.
 NAtoms=   23 NActive=   23 NUniq=   23 SFac= 1.00D+00 NAtFMM=   60 NAOKFM=F Big=F
 Integral buffers will be    131072 words long.
 Raffenetti 2 integral format.
 Two-electron integral symmetry is turned on.
 One-electron integrals computed using PRISM.
 NBasis=   228 RedAO= T EigKep=  4.72D-04  NBF=   228
 NBsUse=   228 1.00D-06 EigRej= -1.00D+00 NBFU=   228
 ExpMin= 1.61D-01 ExpMax= 5.48D+03 ExpMxC= 8.25D+02 IAcc=3 IRadAn=         5 AccDes= 0.00D+00
 Harris functional with IExCor=  402 and IRadAn=       5 diagonalized for initial guess.
 HarFok:  IExCor=  402 AccDes= 0.00D+00 IRadAn=         5 IDoV= 1 UseB2=F ITyADJ=14
 ICtDFT=  3500011 ScaDFX=  1.000000  1.000000  1.000000  1.000000
 FoFCou: FMM=F IPFlag=           0 FMFlag=      100000 FMFlg1=           0
         NFxFlg=           0 DoJE=T BraDBF=F KetDBF=T FulRan=T
         wScrn=  0.000000 ICntrl=       500 IOpCl=  0 I1Cent=   200000004 NGrid=           0
         NMat0=    1 NMatS0=      1 NMatT0=    0 NMatD0=    1 NMtDS0=    0 NMtDT0=    0
 Petite list used in FoFCou.
 Requested convergence on RMS density matrix=1.00D-08 within 128 cycles.
 Requested convergence on MAX density matrix=1.00D-06.
 Requested convergence on             energy=1.00D-06.
 No special actions if energy rises.
 Integral accuracy reduced to 1.0D-05 until final iterations.
 Initial convergence to 1.0D-05 achieved.  Increase integral accuracy.
 SCF Done:  E(RB3LYP) =  -592.664993091     A.U. after   15 cycles
            NFock= 15  Conv=0.51D-08     -V/T= 2.0095

 **********************************************************************

            Population analysis using the SCF density.

 **********************************************************************

 Orbital symmetries:
       Occupied  (A) (A) (A) (A) (A) (A) (A) (A) (A) (A) (A) (A)
                 (A) (A) (A) (A) (A) (A) (A) (A) (A) (A) (A) (A)
                 (A) (A) (A) (A) (A) (A) (A) (A) (A) (A) (A) (A)
                 (A) (A) (A) (A) (A) (A) (A) (A) (A) (A) (A) (A)
       Virtual   (A) (A) (A) (A) (A) (A) (A) (A) (A) (A) (A) (A)
                 (A) (A) (A) (A) (A) (A) (A) (A) (A) (A) (A) (A)
                 (A) (A) (A) (A) (A) (A) (A) (A) (A) (A) (A) (A)
                 (A) (A) (A) (A) (A) (A) (A) (A) (A) (A) (A) (A)
                 (A) (A) (A) (A) (A) (A) (A) (A) (A) (A) (A) (A)
                 (A) (A) (A) (A) (A) (A) (A) (A) (A) (A) (A) (A)
                 (A) (A) (A) (A) (A) (A) (A) (A) (A) (A) (A) (A)
                 (A) (A) (A) (A) (A) (A) (A) (A) (A) (A) (A) (A)
                 (A) (A) (A) (A) (A) (A) (A) (A) (A) (A) (A) (A)
                 (A) (A) (A) (A) (A) (A) (A) (A) (A) (A) (A) (A)
                 (A) (A) (A) (A) (A) (A) (A) (A) (A) (A) (A) (A)
                 (A) (A) (A) (A) (A) (A) (A) (A) (A) (A) (A) (A)
                 (A) (A) (A) (A) (A) (A) (A) (A) (A) (A) (A) (A)
                 (A) (A) (A) (A) (A) (A) (A) (A) (A) (A) (A) (A)
                 (A) (A) (A) (A) (A) (A) (A) (A) (A) (A) (A) (A)
 The electronic state is 1-A.
 Alpha  occ. eigenvalues --  -19.13831 -14.34040 -10.27905 -10.23488 -10.23423
 Alpha  occ. eigenvalues --  -10.21845 -10.21095 -10.20826 -10.20670 -10.20616
 Alpha  occ. eigenvalues --  -10.20432 -10.20257 -10.20232 -10.20111  -1.03828
 Alpha  occ. eigenvalues --   -0.94428  -0.86666  -0.81801  -0.78662  -0.76286
 Alpha  occ. eigenvalues --   -0.75618  -0.66954  -0.64129  -0.62516  -0.61436
 Alpha  occ. eigenvalues --   -0.56742  -0.53868  -0.51594  -0.49422  -0.48097
 Alpha  occ. eigenvalues --   -0.46413  -0.45461  -0.44437  -0.43261  -0.42642
 Alpha  occ. eigenvalues --   -0.40909  -0.40687  -0.39091  -0.37964  -0.36718
 Alpha  occ. eigenvalues --   -0.36055  -0.35288  -0.29250  -0.27661  -0.27290
 Alpha  occ. eigenvalues --   -0.26210  -0.26083  -0.24598
 Alpha virt. eigenvalues --   -0.06907  -0.03292  -0.02067  -0.01004   0.04476
 Alpha virt. eigenvalues --    0.08754   0.10085   0.13386   0.13642   0.14516
 Alpha virt. eigenvalues --    0.15045   0.15514   0.16633   0.17468   0.17792
 Alpha virt. eigenvalues --    0.18343   0.23043   0.24647   0.27194   0.27910
 Alpha virt. eigenvalues --    0.28941   0.29567   0.30059   0.33863   0.34168
 Alpha virt. eigenvalues --    0.36621   0.41372   0.43081   0.45116   0.46678
 Alpha virt. eigenvalues --    0.50788   0.51865   0.52132   0.53589   0.54539
 Alpha virt. eigenvalues --    0.55139   0.56263   0.56869   0.57656   0.58013
 Alpha virt. eigenvalues --    0.58472   0.59281   0.59877   0.60200   0.60352
 Alpha virt. eigenvalues --    0.60775   0.62110   0.63614   0.63777   0.65585
 Alpha virt. eigenvalues --    0.65982   0.66951   0.69363   0.71289   0.73878
 Alpha virt. eigenvalues --    0.75869   0.76931   0.80980   0.81265   0.82279
 Alpha virt. eigenvalues --    0.82755   0.82955   0.84460   0.85118   0.85378
 Alpha virt. eigenvalues --    0.86438   0.87107   0.89135   0.89922   0.91976
 Alpha virt. eigenvalues --    0.93612   0.94579   0.96292   0.98871   0.99912
 Alpha virt. eigenvalues --    1.01676   1.06070   1.06831   1.07691   1.08201
 Alpha virt. eigenvalues --    1.09635   1.12536   1.14239   1.16742   1.18341
 Alpha virt. eigenvalues --    1.19466   1.21630   1.24910   1.25479   1.27186
 Alpha virt. eigenvalues --    1.29289   1.37678   1.40738   1.41318   1.42475
 Alpha virt. eigenvalues --    1.43774   1.45145   1.47119   1.48020   1.48478
 Alpha virt. eigenvalues --    1.49316   1.49955   1.50666   1.51390   1.52612
 Alpha virt. eigenvalues --    1.64199   1.71285   1.74502   1.76099   1.76240
 Alpha virt. eigenvalues --    1.77835   1.80236   1.80958   1.84058   1.85287
 Alpha virt. eigenvalues --    1.87432   1.88802   1.90960   1.93234   1.96005
 Alpha virt. eigenvalues --    1.97794   2.01177   2.03456   2.04830   2.07132
 Alpha virt. eigenvalues --    2.10414   2.13329   2.13758   2.13939   2.14288
 Alpha virt. eigenvalues --    2.15698   2.16278   2.19040   2.23725   2.28608
 Alpha virt. eigenvalues --    2.28997   2.29693   2.30397   2.31616   2.33641
 Alpha virt. eigenvalues --    2.35593   2.39137   2.47243   2.52234   2.53055
 Alpha virt. eigenvalues --    2.56571   2.58414   2.58730   2.61303   2.64201
 Alpha virt. eigenvalues --    2.67644   2.68153   2.71942   2.72851   2.73499
 Alpha virt. eigenvalues --    2.73988   2.76307   2.79997   2.84832   2.88338
 Alpha virt. eigenvalues --    2.96402   2.98034   3.11651   3.17611   3.37696
 Alpha virt. eigenvalues --    3.42093   3.98402   4.04009   4.07896   4.09908
 Alpha virt. eigenvalues --    4.10520   4.12866   4.15015   4.23325   4.30061
 Alpha virt. eigenvalues --    4.32888   4.35482   4.46004   4.62286   4.72830
          Condensed to atoms (all electrons):
               1          2          3          4          5          6
     1  O    8.070369   0.555119  -0.098050   0.001804  -0.000077  -0.000010
     2  C    0.555119   4.736309   0.290891  -0.045126   0.004462   0.000415
     3  C   -0.098050   0.290891   4.971609   0.516392  -0.016584  -0.034582
     4  C    0.001804  -0.045126   0.516392   4.985700   0.520762  -0.037794
     5  C   -0.000077   0.004462  -0.016584   0.520762   4.864105   0.551059
     6  C   -0.000010   0.000415  -0.034582  -0.037794   0.551059   4.846894
     7  C    0.000670   0.005444  -0.020228  -0.042356  -0.026638   0.541271
     8  C    0.003210  -0.024641   0.496519  -0.056592  -0.041893  -0.033642
     9  C   -0.098938   0.254756  -0.109752  -0.005114   0.000135  -0.000004
    10  C    0.003919  -0.033646   0.008822   0.000192   0.000011   0.000000
    11  C    0.000692   0.007091  -0.000092  -0.000021  -0.000000   0.000000
    12  C   -0.000014   0.000344  -0.000008  -0.000002  -0.000000   0.000000
    13  N   -0.000040   0.004697   0.000022  -0.000028  -0.000005  -0.000000
    14  C    0.001775  -0.031832  -0.005302  -0.003081  -0.000078  -0.000007
    15  H    0.000026  -0.008159  -0.043507   0.355393  -0.040853   0.004536
    16  H    0.000001  -0.000141   0.003640  -0.039190   0.358807  -0.042350
    17  H    0.000000   0.000005   0.000539   0.005031  -0.042738   0.360012
    18  H    0.000002  -0.000147   0.003814   0.000791   0.004548  -0.043194
    19  H    0.009331  -0.007077  -0.045166   0.005636   0.000295   0.004498
    20  H    0.010661  -0.007798   0.000648  -0.000027   0.000000   0.000000
    21  H   -0.000000  -0.000062   0.000002  -0.000000   0.000000   0.000000
    22  H   -0.000000   0.000013  -0.000000   0.000000   0.000000  -0.000000
    23  H   -0.000015  -0.003472   0.006148   0.003766   0.000131  -0.000017
               7          8          9         10         11         12
     1  O    0.000670   0.003210  -0.098938   0.003919   0.000692  -0.000014
     2  C    0.005444  -0.024641   0.254756  -0.033646   0.007091   0.000344
     3  C   -0.020228   0.496519  -0.109752   0.008822  -0.000092  -0.000008
     4  C   -0.042356  -0.056592  -0.005114   0.000192  -0.000021  -0.000002
     5  C   -0.026638  -0.041893   0.000135   0.000011  -0.000000  -0.000000
     6  C    0.541271  -0.033642  -0.000004   0.000000   0.000000   0.000000
     7  C    4.889995   0.507802  -0.000111   0.000001  -0.000000   0.000000
     8  C    0.507802   4.959824   0.008071  -0.000236   0.000001   0.000000
     9  C   -0.000111   0.008071   5.105578   0.481862  -0.017465  -0.033685
    10  C    0.000001  -0.000236   0.481862   4.974097   0.498729  -0.031508
    11  C   -0.000000   0.000001  -0.017465   0.498729   4.976094   0.493297
    12  C    0.000000   0.000000  -0.033685  -0.031508   0.493297   4.787873
    13  N   -0.000000   0.000005  -0.008996  -0.052954  -0.023198   0.460949
    14  C   -0.000013   0.000320   0.451500  -0.057492  -0.041131  -0.075545
    15  H    0.000325   0.005455   0.006878  -0.000093  -0.000024  -0.000017
    16  H    0.004523   0.000817   0.000005  -0.000000  -0.000000   0.000000
    17  H   -0.042936   0.004626  -0.000000   0.000000  -0.000000  -0.000000
    18  H    0.359736  -0.039154   0.000002  -0.000000   0.000000   0.000000
    19  H   -0.042769   0.359318   0.000653  -0.000016  -0.000000   0.000000
    20  H   -0.000000  -0.000014  -0.046808   0.363167  -0.045025   0.004488
    21  H    0.000000  -0.000000   0.004826  -0.040362   0.353317  -0.036930
    22  H   -0.000000   0.000000   0.000533   0.003455  -0.062937   0.378257
    23  H   -0.000016  -0.000129  -0.062865   0.004455   0.000174   0.005344
              13         14         15         16         17         18
     1  O   -0.000040   0.001775   0.000026   0.000001   0.000000   0.000002
     2  C    0.004697  -0.031832  -0.008159  -0.000141   0.000005  -0.000147
     3  C    0.000022  -0.005302  -0.043507   0.003640   0.000539   0.003814
     4  C   -0.000028  -0.003081   0.355393  -0.039190   0.005031   0.000791
     5  C   -0.000005  -0.000078  -0.040853   0.358807  -0.042738   0.004548
     6  C   -0.000000  -0.000007   0.004536  -0.042350   0.360012  -0.043194
     7  C   -0.000000  -0.000013   0.000325   0.004523  -0.042936   0.359736
     8  C    0.000005   0.000320   0.005455   0.000817   0.004626  -0.039154
     9  C   -0.008996   0.451500   0.006878   0.000005  -0.000000   0.000002
    10  C   -0.052954  -0.057492  -0.000093  -0.000000   0.000000  -0.000000
    11  C   -0.023198  -0.041131  -0.000024  -0.000000  -0.000000   0.000000
    12  C    0.460949  -0.075545  -0.000017   0.000000  -0.000000   0.000000
    13  N    6.701106   0.434472  -0.000026   0.000000   0.000000   0.000000
    14  C    0.434472   4.940781   0.002785  -0.000005   0.000000  -0.000000
    15  H   -0.000026   0.002785   0.575269  -0.005100  -0.000173   0.000016
    16  H    0.000000  -0.000005  -0.005100   0.585688  -0.005556  -0.000176
    17  H    0.000000   0.000000  -0.000173  -0.005556   0.588270  -0.005506
    18  H    0.000000  -0.000000   0.000016  -0.000176  -0.005506   0.584472
    19  H    0.000000  -0.000024  -0.000135   0.000017  -0.000162  -0.005030
    20  H   -0.000292   0.005786  -0.000008  -0.000000   0.000000  -0.000000
    21  H    0.004596   0.000380  -0.000000  -0.000000   0.000000  -0.000000
    22  H   -0.052735   0.005524  -0.000000   0.000000  -0.000000   0.000000
    23  H   -0.049917   0.374826  -0.000376  -0.000004   0.000000  -0.000000
              19         20         21         22         23
     1  O    0.009331   0.010661  -0.000000  -0.000000  -0.000015
     2  C   -0.007077  -0.007798  -0.000062   0.000013  -0.003472
     3  C   -0.045166   0.000648   0.000002  -0.000000   0.006148
     4  C    0.005636  -0.000027  -0.000000   0.000000   0.003766
     5  C    0.000295   0.000000   0.000000   0.000000   0.000131
     6  C    0.004498   0.000000   0.000000  -0.000000  -0.000017
     7  C   -0.042769  -0.000000   0.000000  -0.000000  -0.000016
     8  C    0.359318  -0.000014  -0.000000   0.000000  -0.000129
     9  C    0.000653  -0.046808   0.004826   0.000533  -0.062865
    10  C   -0.000016   0.363167  -0.040362   0.003455   0.004455
    11  C   -0.000000  -0.045025   0.353317  -0.062937   0.000174
    12  C    0.000000   0.004488  -0.036930   0.378257   0.005344
    13  N    0.000000  -0.000292   0.004596  -0.052735  -0.049917
    14  C   -0.000024   0.005786   0.000380   0.005524   0.374826
    15  H   -0.000135  -0.000008  -0.000000  -0.000000  -0.000376
    16  H    0.000017  -0.000000  -0.000000   0.000000  -0.000004
    17  H   -0.000162   0.000000   0.000000  -0.000000   0.000000
    18  H   -0.005030  -0.000000  -0.000000   0.000000  -0.000000
    19  H    0.561682  -0.000003  -0.000000   0.000000  -0.000006
    20  H   -0.000003   0.549937  -0.005430  -0.000164  -0.000143
    21  H   -0.000000  -0.005430   0.575054  -0.002061   0.000024
    22  H    0.000000  -0.000164  -0.002061   0.579757  -0.000183
    23  H   -0.000006  -0.000143   0.000024  -0.000183   0.560870
 Mulliken charges:
               1
     1  O   -0.460435
     2  C    0.302556
     3  C    0.074225
     4  C   -0.166136
     5  C   -0.135450
     6  C   -0.117087
     7  C   -0.134702
     8  C   -0.149668
     9  C    0.068939
    10  C   -0.122403
    11  C   -0.139502
    12  C    0.047157
    13  N   -0.417656
    14  C   -0.003640
    15  H    0.147787
    16  H    0.139025
    17  H    0.138588
    18  H    0.139826
    19  H    0.158959
    20  H    0.171025
    21  H    0.146646
    22  H    0.150542
    23  H    0.161404
 Sum of Mulliken charges =  -0.00000
 Mulliken charges with hydrogens summed into heavy atoms:
               1
     1  O   -0.460435
     2  C    0.302556
     3  C    0.074225
     4  C   -0.018349
     5  C    0.003575
     6  C    0.021501
     7  C    0.005124
     8  C    0.009290
     9  C    0.068939
    10  C    0.048622
    11  C    0.007145
    12  C    0.197699
    13  N   -0.417656
    14  C    0.157765
 Electronic spatial extent (au):  <R**2>=           3024.0757
 Charge=             -0.0000 electrons
 Dipole moment (field-independent basis, Debye):
    X=              0.4648    Y=             -1.1508    Z=              0.9788  Tot=              1.5807
 Quadrupole moment (field-independent basis, Debye-Ang):
   XX=            -63.1471   YY=            -86.3722   ZZ=            -79.4724
   XY=             -5.4702   XZ=             -5.9811   YZ=             -3.6163
 Traceless Quadrupole moment (field-independent basis, Debye-Ang):
   XX=             13.1835   YY=            -10.0416   ZZ=             -3.1418
   XY=             -5.4702   XZ=             -5.9811   YZ=             -3.6163
 Octapole moment (field-independent basis, Debye-Ang**2):
  XXX=            -11.8300  YYY=             -5.6635  ZZZ=              0.7669  XYY=             11.9453
  XXY=              4.9834  XXZ=              6.4661  XZZ=              1.2187  YZZ=              6.4604
  YYZ=              7.2219  XYZ=             -7.3340
 Hexadecapole moment (field-independent basis, Debye-Ang**3):
 XXXX=          -2743.8587 YYYY=           -743.4422 ZZZZ=           -237.8701 XXXY=            -26.4442
 XXXZ=            -84.0721 YYYX=            -31.3788 YYYZ=            -20.2685 ZZZX=             -6.6699
 ZZZY=             -3.4271 XXYY=           -624.7404 XXZZ=           -589.6485 YYZZ=           -147.4748
 XXYZ=            -22.4428 YYXZ=            -14.4518 ZZXY=             -8.8380
 N-N= 7.789663415180D+02 E-N=-2.934127348417D+03  KE= 5.870962958967D+02
 Calling FoFJK, ICntrl=      2127 FMM=F ISym2X=0 I1Cent= 0 IOpClX= 0 NMat=1 NMatS=1 NMatT=0.
 ***** Axes restored to original set *****
 -------------------------------------------------------------------
 Center     Atomic                   Forces (Hartrees/Bohr)
 Number     Number              X              Y              Z
 -------------------------------------------------------------------
      1        8           0.001125460   -0.000694081   -0.001478581
      2        6          -0.001874377   -0.014526827   -0.011976628
      3        6           0.001584615    0.004790827    0.002712686
      4        6          -0.005168945    0.004402269    0.003628180
      5        6           0.000135920   -0.001538058    0.001417803
      6        6          -0.002089496    0.000580808    0.001863664
      7        6           0.002250627   -0.001327588   -0.002352287
      8        6          -0.007969904   -0.000495637   -0.002213429
      9        6           0.000036944   -0.001321857    0.004339569
     10        6           0.009633315   -0.004367209   -0.000100050
     11        6          -0.003092454   -0.007573546   -0.003657979
     12        6          -0.012107470    0.014797121    0.001793891
     13        7          -0.000323501   -0.011930213   -0.006974090
     14        6           0.015731350    0.019346060    0.012332486
     15        1           0.001480515    0.000708495   -0.002739111
     16        1           0.000569613   -0.000510492   -0.000509711
     17        1           0.000566862    0.000307959   -0.000041239
     18        1           0.000608068    0.000314084    0.000127644
     19        1           0.002539190    0.000478482    0.002689688
     20        1          -0.003097444    0.001335732   -0.000132520
     21        1           0.000807710   -0.000377967    0.000234715
     22        1           0.001148990    0.000088801    0.001065250
     23        1          -0.002495590   -0.002487162   -0.000029952
 -------------------------------------------------------------------
 Cartesian Forces:  Max     0.019346060 RMS     0.005578183

 GradGradGradGradGradGradGradGradGradGradGradGradGradGradGradGradGradGrad
 Berny optimization.
 FormGI is forming the generalized inverse of G from B-inverse, IUseBI=4.
 Internal  Forces:  Max     0.013250757 RMS     0.003060170
 Search for a local minimum.
 Step number   1 out of a maximum of  123
 All quantities printed in internal units (Hartrees-Bohrs-Radians)
 Mixed Optimization -- RFO/linear search
 Second derivative matrix not updated -- first step.
 ITU=  0
     Eigenvalues ---    0.00979   0.01013   0.01047   0.01753   0.01826
     Eigenvalues ---    0.02096   0.02111   0.02122   0.02135   0.02144
     Eigenvalues ---    0.02153   0.02154   0.02156   0.02162   0.02181
     Eigenvalues ---    0.02228   0.02240   0.02248   0.02286   0.02296
     Eigenvalues ---    0.15997   0.15999   0.15999   0.15999   0.16000
     Eigenvalues ---    0.16000   0.16000   0.16000   0.16000   0.21998
     Eigenvalues ---    0.21999   0.22000   0.23178   0.23446   0.23476
     Eigenvalues ---    0.24978   0.24983   0.25000   0.25000   0.34127
     Eigenvalues ---    0.34714   0.35005   0.35083   0.35094   0.35094
     Eigenvalues ---    0.35127   0.35155   0.35194   0.35247   0.35454
     Eigenvalues ---    0.41916   0.41936   0.43245   0.44178   0.45751
     Eigenvalues ---    0.46080   0.46301   0.46449   0.46859   0.47777
     Eigenvalues ---    0.52329   0.53683   0.91778
 RFO step:  Lambda=-5.17627499D-03 EMin= 9.78963795D-03
 Linear search not attempted -- first point.
 Iteration  1 RMS(Cart)=  0.12721064 RMS(Int)=  0.00430510
 Iteration  2 RMS(Cart)=  0.00846236 RMS(Int)=  0.00006200
 Iteration  3 RMS(Cart)=  0.00002874 RMS(Int)=  0.00006039
 Iteration  4 RMS(Cart)=  0.00000000 RMS(Int)=  0.00006039
 Variable       Old X    -DE/DX   Delta X   Delta X   Delta X     New X
                                 (Linear)    (Quad)   (Total)
    R1        2.32124   0.00162   0.00000   0.00176   0.00176   2.32300
    R2        2.80416   0.00835   0.00000   0.02409   0.02409   2.82825
    R3        2.79442   0.01163   0.00000   0.03300   0.03300   2.82742
    R4        2.64625   0.00244   0.00000   0.00530   0.00527   2.65152
    R5        2.64493   0.00221   0.00000   0.00476   0.00475   2.64968
    R6        2.63886  -0.00057   0.00000  -0.00119  -0.00122   2.63764
    R7        2.05423  -0.00077   0.00000  -0.00216  -0.00216   2.05207
    R8        2.63653   0.00086   0.00000   0.00184   0.00185   2.63838
    R9        2.05522  -0.00072   0.00000  -0.00201  -0.00201   2.05321
   R10        2.63565   0.00279   0.00000   0.00593   0.00596   2.64161
   R11        2.05523  -0.00047   0.00000  -0.00132  -0.00132   2.05391
   R12        2.63686  -0.00167   0.00000  -0.00360  -0.00358   2.63328
   R13        2.05469  -0.00056   0.00000  -0.00156  -0.00156   2.05313
   R14        2.05667  -0.00225   0.00000  -0.00633  -0.00633   2.05033
   R15        2.63811   0.00297   0.00000   0.00769   0.00771   2.64582
   R16        2.62470   0.01137   0.00000   0.02384   0.02381   2.64851
   R17        2.63186  -0.00270   0.00000  -0.00461  -0.00456   2.62730
   R18        2.05540  -0.00142   0.00000  -0.00400  -0.00400   2.05140
   R19        2.61936   0.00995   0.00000   0.02023   0.02025   2.63961
   R20        2.04944   0.00090   0.00000   0.00251   0.00251   2.05195
   R21        2.55468  -0.01076   0.00000  -0.02064  -0.02066   2.53402
   R22        2.05361   0.00131   0.00000   0.00366   0.00366   2.05727
   R23        2.56190  -0.01325   0.00000  -0.02532  -0.02537   2.53654
   R24        2.05276   0.00066   0.00000   0.00185   0.00185   2.05461
    A1        2.08076   0.00529   0.00000   0.02071   0.02069   2.10146
    A2        2.07757   0.00296   0.00000   0.01160   0.01159   2.08916
    A3        2.12485  -0.00825   0.00000  -0.03232  -0.03234   2.09251
    A4        2.12388   0.00182   0.00000   0.00708   0.00712   2.13100
    A5        2.06624   0.00038   0.00000   0.00146   0.00151   2.06775
    A6        2.09248  -0.00221   0.00000  -0.00883  -0.00896   2.08352
    A7        2.09130   0.00168   0.00000   0.00746   0.00732   2.09863
    A8        2.11722  -0.00361   0.00000  -0.02053  -0.02047   2.09675
    A9        2.07448   0.00192   0.00000   0.01295   0.01301   2.08749
   A10        2.09632  -0.00035   0.00000  -0.00151  -0.00165   2.09467
   A11        2.09477  -0.00034   0.00000  -0.00230  -0.00230   2.09247
   A12        2.09205   0.00069   0.00000   0.00397   0.00397   2.09602
   A13        2.09687  -0.00055   0.00000  -0.00249  -0.00255   2.09432
   A14        2.09374   0.00007   0.00000   0.00006   0.00006   2.09379
   A15        2.09251   0.00048   0.00000   0.00256   0.00256   2.09507
   A16        2.09400   0.00039   0.00000   0.00157   0.00155   2.09555
   A17        2.09585   0.00001   0.00000   0.00049   0.00050   2.09635
   A18        2.09331  -0.00041   0.00000  -0.00207  -0.00206   2.09125
   A19        2.09497   0.00105   0.00000   0.00447   0.00441   2.09938
   A20        2.09819  -0.00358   0.00000  -0.02072  -0.02069   2.07751
   A21        2.09002   0.00253   0.00000   0.01624   0.01627   2.10629
   A22        2.08808  -0.00099   0.00000  -0.00568  -0.00567   2.08241
   A23        2.13542   0.00278   0.00000   0.00910   0.00909   2.14452
   A24        2.05896  -0.00181   0.00000  -0.00396  -0.00406   2.05490
   A25        2.08474  -0.00345   0.00000  -0.00969  -0.00969   2.07505
   A26        2.10119  -0.00141   0.00000  -0.01417  -0.01417   2.08702
   A27        2.09726   0.00487   0.00000   0.02385   0.02386   2.12111
   A28        2.06475   0.00028   0.00000   0.00357   0.00357   2.06831
   A29        2.11133  -0.00003   0.00000  -0.00113  -0.00113   2.11019
   A30        2.10710  -0.00025   0.00000  -0.00243  -0.00243   2.10468
   A31        2.16008   0.00126   0.00000   0.00282   0.00274   2.16282
   A32        2.11173  -0.00113   0.00000  -0.00441  -0.00438   2.10735
   A33        2.01136  -0.00013   0.00000   0.00163   0.00166   2.01302
   A34        2.03712   0.00166   0.00000   0.00022   0.00002   2.03714
   A35        2.16018   0.00209   0.00000   0.00781   0.00766   2.16783
   A36        2.13099  -0.00437   0.00000  -0.02411  -0.02406   2.10693
   A37        1.99193   0.00228   0.00000   0.01616   0.01620   2.00813
    D1        2.48348   0.00201   0.00000   0.13786   0.13784   2.62132
    D2       -0.62124   0.00226   0.00000   0.14713   0.14718  -0.47407
    D3       -0.65934   0.00186   0.00000   0.12787   0.12782  -0.53152
    D4        2.51913   0.00210   0.00000   0.13713   0.13716   2.65628
    D5       -0.53265   0.00179   0.00000   0.10927   0.10931  -0.42334
    D6        2.56721   0.00140   0.00000   0.09377   0.09376   2.66097
    D7        2.61016   0.00194   0.00000   0.11924   0.11925   2.72942
    D8       -0.57317   0.00155   0.00000   0.10374   0.10370  -0.46947
    D9       -3.13449   0.00115   0.00000   0.04497   0.04498  -3.08951
   D10       -0.01369   0.00102   0.00000   0.03882   0.03884   0.02515
   D11       -0.03031   0.00096   0.00000   0.03578   0.03578   0.00547
   D12        3.09049   0.00083   0.00000   0.02963   0.02964   3.12012
   D13        3.13560  -0.00058   0.00000  -0.02417  -0.02409   3.11151
   D14       -0.00483  -0.00051   0.00000  -0.02120  -0.02116  -0.02600
   D15        0.03019  -0.00043   0.00000  -0.01542  -0.01536   0.01483
   D16       -3.11024  -0.00036   0.00000  -0.01244  -0.01243  -3.12267
   D17        0.01123  -0.00086   0.00000  -0.03274  -0.03282  -0.02158
   D18       -3.14074  -0.00040   0.00000  -0.01515  -0.01527   3.12717
   D19       -3.11008  -0.00066   0.00000  -0.02634  -0.02630  -3.13638
   D20        0.02113  -0.00020   0.00000  -0.00875  -0.00876   0.01237
   D21        0.00809   0.00026   0.00000   0.00941   0.00935   0.01744
   D22        3.13713   0.00055   0.00000   0.02085   0.02082  -3.12524
   D23       -3.12314  -0.00019   0.00000  -0.00811  -0.00819  -3.13133
   D24        0.00590   0.00010   0.00000   0.00333   0.00328   0.00918
   D25       -0.00827   0.00029   0.00000   0.01111   0.01109   0.00283
   D26        3.12649   0.00025   0.00000   0.00966   0.00969   3.13617
   D27       -3.13731  -0.00000   0.00000  -0.00030  -0.00037  -3.13768
   D28       -0.00256  -0.00005   0.00000  -0.00176  -0.00177  -0.00433
   D29       -0.01090  -0.00023   0.00000  -0.00818  -0.00811  -0.01902
   D30        3.12953  -0.00030   0.00000  -0.01117  -0.01112   3.11841
   D31        3.13752  -0.00019   0.00000  -0.00674  -0.00672   3.13080
   D32       -0.00523  -0.00026   0.00000  -0.00972  -0.00972  -0.01495
   D33        3.13063  -0.00057   0.00000  -0.02234  -0.02217   3.10846
   D34       -0.00904  -0.00054   0.00000  -0.02133  -0.02120  -0.03023
   D35        0.02896  -0.00030   0.00000  -0.00782  -0.00773   0.02123
   D36       -3.11071  -0.00028   0.00000  -0.00681  -0.00676  -3.11747
   D37       -3.13925   0.00121   0.00000   0.04610   0.04620  -3.09305
   D38       -0.01212   0.00090   0.00000   0.03372   0.03385   0.02173
   D39       -0.03873   0.00085   0.00000   0.03079   0.03084  -0.00790
   D40        3.08840   0.00054   0.00000   0.01842   0.01848   3.10688
   D41       -0.00749  -0.00020   0.00000  -0.00613  -0.00603  -0.01352
   D42        3.13874  -0.00024   0.00000  -0.00795  -0.00790   3.13084
   D43        3.13218  -0.00023   0.00000  -0.00718  -0.00706   3.12511
   D44       -0.00478  -0.00027   0.00000  -0.00900  -0.00894  -0.01371
   D45       -0.00744  -0.00007   0.00000  -0.00160  -0.00158  -0.00902
   D46        3.14097  -0.00026   0.00000  -0.00919  -0.00919   3.13177
   D47        3.12952  -0.00003   0.00000   0.00022   0.00029   3.12981
   D48       -0.00525  -0.00022   0.00000  -0.00737  -0.00732  -0.01258
   D49       -0.00041   0.00064   0.00000   0.02265   0.02266   0.02225
   D50        3.13472   0.00083   0.00000   0.02982   0.02987  -3.11859
   D51        0.02427  -0.00106   0.00000  -0.03775  -0.03779  -0.01352
   D52       -3.10391  -0.00072   0.00000  -0.02597  -0.02577  -3.12967
         Item               Value     Threshold  Converged?
 Maximum Force            0.013251     0.000015     NO 
 RMS     Force            0.003060     0.000010     NO 
 Maximum Displacement     0.529423     0.000060     NO 
 RMS     Displacement     0.127795     0.000040     NO 
 Predicted change in Energy=-2.976985D-03
 GradGradGradGradGradGradGradGradGradGradGradGradGradGradGradGradGradGrad

                          Input orientation:                          
 ---------------------------------------------------------------------
 Center     Atomic      Atomic             Coordinates (Angstroms)
 Number     Number       Type             X           Y           Z
 ---------------------------------------------------------------------
      1          8           0        0.394039   -1.730478   -1.723031
      2          6           0        0.257183   -0.856652   -0.869316
      3          6           0       -1.108380   -0.465302   -0.398119
      4          6           0       -1.340657    0.011327    0.900972
      5          6           0       -2.638972    0.306512    1.319826
      6          6           0       -3.709631    0.152504    0.437068
      7          6           0       -3.483930   -0.317321   -0.860002
      8          6           0       -2.191425   -0.635541   -1.272222
      9          6           0        1.463862   -0.171494   -0.309746
     10          6           0        2.701501   -0.825164   -0.345416
     11          6           0        3.824253   -0.164696    0.140553
     12          6           0        3.673240    1.134474    0.630919
     13          7           0        2.506298    1.794664    0.654001
     14          6           0        1.430742    1.135393    0.195469
     15          1           0       -0.513442    0.128857    1.594589
     16          1           0       -2.813788    0.662482    2.331375
     17          1           0       -4.718418    0.397116    0.759295
     18          1           0       -4.316339   -0.442667   -1.546880
     19          1           0       -2.007576   -1.021239   -2.269536
     20          1           0        2.765365   -1.829779   -0.751741
     21          1           0        4.798324   -0.644532    0.137808
     22          1           0        4.526167    1.681893    1.028447
     23          1           0        0.501583    1.699641    0.215689
 ---------------------------------------------------------------------
                    Distance matrix (angstroms):
                    1          2          3          4          5
     1  O    0.000000
     2  C    1.229280   0.000000
     3  C    2.369246   1.496644   0.000000
     4  C    3.595614   2.537794   1.403126   0.000000
     5  C    4.754731   3.812219   2.426880   1.395778   0.000000
     6  C    5.005173   4.296585   2.801022   2.418093   1.396170
     7  C    4.216691   3.779801   2.424557   2.793324   2.419663
     8  C    2.843720   2.491366   1.402150   2.421779   2.794007
     9  C    2.360578   1.496207   2.590475   3.060162   4.440411
    10  C    2.835806   2.500031   3.827201   4.311872   5.707397
    11  C    4.206065   3.771290   4.971056   5.223554   6.586805
    12  C    4.949968   4.229035   5.146075   5.145245   6.403447
    13  N    4.747477   3.795852   4.390933   4.247393   5.397381
    14  C    3.601196   2.545437   3.059691   3.072770   4.302767
    15  H    3.909891   2.763316   2.162836   1.085911   2.150566
    16  H    5.696896   4.688609   3.410345   2.154106   1.086511
    17  H    6.068428   5.383392   3.887898   3.402672   2.155574
    18  H    4.886425   4.641938   3.407517   3.879791   3.404826
    19  H    2.563093   2.667740   2.149378   3.400455   3.878802
    20  H    2.564459   2.692913   4.122226   4.793803   6.169441
    21  H    4.903033   4.656314   5.933675   6.220905   7.590457
    22  H    6.024067   5.316949   6.196261   6.101366   7.301767
    23  H    3.941562   2.787759   2.766897   2.591113   3.608742
                    6          7          8          9         10
     6  C    0.000000
     7  C    1.397879   0.000000
     8  C    2.418188   1.393470   0.000000
     9  C    5.237150   4.980432   3.808258   0.000000
    10  C    6.532283   6.227541   4.983538   1.400110   0.000000
    11  C    7.546386   7.377937   6.197258   2.402969   1.390308
    12  C    7.450411   7.453565   6.414763   2.733450   2.395347
    13  N    6.432847   6.529588   5.628928   2.425130   2.810772
    14  C    5.239072   5.232438   4.290736   1.401532   2.398159
    15  H    3.399417   3.879161   3.408597   2.761599   3.874227
    16  H    2.156621   3.404995   3.880478   5.096011   6.308464
    17  H    1.086884   2.157893   3.402813   6.299743   7.600629
    18  H    2.158327   1.086471   2.151255   5.917328   7.130211
    19  H    3.405931   2.159146   1.084988   4.075995   5.090785
    20  H    6.875194   6.430626   5.125122   2.153876   1.085556
    21  H    8.550446   8.348559   7.130558   3.397456   2.159352
    22  H    8.397447   8.469047   7.469245   3.821454   3.391495
    23  H    4.491878   4.594515   3.862544   2.168688   3.395455
                   11         12         13         14         15
    11  C    0.000000
    12  C    1.396820   0.000000
    13  N    2.416552   1.340946   0.000000
    14  C    2.724361   2.284385   1.342278   0.000000
    15  H    4.584320   4.412281   3.574695   2.598173   0.000000
    16  H    7.038999   6.722786   5.691988   4.775121   2.473702
    17  H    8.583455   8.424969   7.359398   6.218933   4.295521
    18  H    8.318290   8.429921   7.509854   6.209268   4.965632
    19  H    6.368079   6.732860   6.070539   4.748615   4.299607
    20  H    2.165626   3.394523   3.896129   3.386838   4.482421
    21  H    1.085848   2.161905   3.386667   3.809471   5.561942
    22  H    2.165855   1.088660   2.057377   3.251795   5.303781
    23  H    3.810712   3.248266   2.054270   1.087254   2.323575
                   16         17         18         19         20
    16  H    0.000000
    17  H    2.483842   0.000000
    18  H    4.303473   2.487036   0.000000
    19  H    4.965207   4.305138   2.487441   0.000000
    20  H    6.844262   7.952943   7.259950   5.073304   0.000000
    21  H    8.028965   9.593730   9.271247   7.228935   2.515757
    22  H    7.524078   9.337315   9.451772   7.802142   4.312927
    23  H    4.067372   5.407448   5.559543   4.458185   4.303189
                   21         22         23
    21  H    0.000000
    22  H    2.505905   0.000000
    23  H    4.895221   4.105869   0.000000
 Stoichiometry    C12H9NO
 Framework group  C1[X(C12H9NO)]
 Deg. of freedom    63
 Full point group                 C1      NOp   1
 Largest Abelian subgroup         C1      NOp   1
 Largest concise Abelian subgroup C1      NOp   1
                         Standard orientation:                         
 ---------------------------------------------------------------------
 Center     Atomic      Atomic             Coordinates (Angstroms)
 Number     Number       Type             X           Y           Z
 ---------------------------------------------------------------------
      1          8           0       -0.024810    2.345503    0.059275
      2          6           0       -0.014574    1.116451    0.037944
      3          6           0        1.282386    0.369579    0.042373
      4          6           0        1.406009   -0.906391    0.612796
      5          6           0        2.648038   -1.542087    0.650874
      6          6           0        3.768447   -0.919694    0.097159
      7          6           0        3.650597    0.349413   -0.476899
      8          6           0        2.416309    0.995935   -0.494211
      9          6           0       -1.307611    0.365016   -0.007190
     10          6           0       -2.471726    0.974258    0.476510
     11          6           0       -3.675486    0.283552    0.393795
     12          6           0       -3.676293   -0.987509   -0.185436
     13          7           0       -2.582513   -1.585168   -0.679992
     14          6           0       -1.427058   -0.909870   -0.577007
     15          1           0        0.539962   -1.394432    1.049810
     16          1           0        2.739780   -2.524408    1.105996
     17          1           0        4.732145   -1.422021    0.113676
     18          1           0        4.522266    0.837625   -0.903821
     19          1           0        2.317860    1.989909   -0.917913
     20          1           0       -2.417248    1.970911    0.903296
     21          1           0       -4.596283    0.720913    0.767846
     22          1           0       -4.596582   -1.564224   -0.260604
     23          1           0       -0.560045   -1.414038   -0.996797
 ---------------------------------------------------------------------
 Rotational constants (GHZ):           1.6922567           0.4188404           0.3532851
 Standard basis: 6-31G(d) (6D, 7F)
 There are   228 symmetry adapted cartesian basis functions of A   symmetry.
 There are   228 symmetry adapted basis functions of A   symmetry.
   228 basis functions,   428 primitive gaussians,   228 cartesian basis functions
    48 alpha electrons       48 beta electrons
       nuclear repulsion energy       778.6478892234 Hartrees.
 NAtoms=   23 NActive=   23 NUniq=   23 SFac= 1.00D+00 NAtFMM=   60 NAOKFM=F Big=F
 Integral buffers will be    131072 words long.
 Raffenetti 2 integral format.
 Two-electron integral symmetry is turned on.
 One-electron integrals computed using PRISM.
 NBasis=   228 RedAO= T EigKep=  4.68D-04  NBF=   228
 NBsUse=   228 1.00D-06 EigRej= -1.00D+00 NBFU=   228
 Initial guess from the checkpoint file:  "3.chk"
 B after Tr=     0.000000   -0.000000    0.000000
         Rot=    0.999997   -0.001100    0.002115    0.000611 Ang=  -0.28 deg.
 ExpMin= 1.61D-01 ExpMax= 5.48D+03 ExpMxC= 8.25D+02 IAcc=2 IRadAn=         4 AccDes= 0.00D+00
 Harris functional with IExCor=  402 and IRadAn=       4 diagonalized for initial guess.
 HarFok:  IExCor=  402 AccDes= 0.00D+00 IRadAn=         4 IDoV= 1 UseB2=F ITyADJ=14
 ICtDFT=  3500011 ScaDFX=  1.000000  1.000000  1.000000  1.000000
 FoFCou: FMM=F IPFlag=           0 FMFlag=      100000 FMFlg1=           0
         NFxFlg=           0 DoJE=T BraDBF=F KetDBF=T FulRan=T
         wScrn=  0.000000 ICntrl=       500 IOpCl=  0 I1Cent=   200000004 NGrid=           0
         NMat0=    1 NMatS0=      1 NMatT0=    0 NMatD0=    1 NMtDS0=    0 NMtDT0=    0
 Petite list used in FoFCou.
 Requested convergence on RMS density matrix=1.00D-08 within 128 cycles.
 Requested convergence on MAX density matrix=1.00D-06.
 Requested convergence on             energy=1.00D-06.
 No special actions if energy rises.
 Integral accuracy reduced to 1.0D-05 until final iterations.
 Initial convergence to 1.0D-05 achieved.  Increase integral accuracy.
 SCF Done:  E(RB3LYP) =  -592.667369276     A.U. after   13 cycles
            NFock= 13  Conv=0.75D-08     -V/T= 2.0096
 Calling FoFJK, ICntrl=      2127 FMM=F ISym2X=0 I1Cent= 0 IOpClX= 0 NMat=1 NMatS=1 NMatT=0.
 ***** Axes restored to original set *****
 -------------------------------------------------------------------
 Center     Atomic                   Forces (Hartrees/Bohr)
 Number     Number              X              Y              Z
 -------------------------------------------------------------------
      1        8          -0.000131332    0.003231532    0.003112127
      2        6          -0.000985400   -0.003931978   -0.004913436
      3        6           0.002074171    0.000906805    0.000574069
      4        6          -0.002779043   -0.000408392    0.001940651
      5        6           0.000274618    0.000463495   -0.000629986
      6        6           0.000101940    0.000171603    0.000262667
      7        6           0.001267450   -0.000529605   -0.000554701
      8        6          -0.003004235   -0.000834279    0.000298425
      9        6          -0.001443615   -0.000147942    0.001595084
     10        6           0.002538238    0.000582183   -0.000282911
     11        6          -0.000543584   -0.001483210   -0.000638452
     12        6          -0.001356698    0.003187625    0.001184394
     13        7          -0.000563063   -0.005118128   -0.001481306
     14        6           0.004015440    0.005927218    0.001147313
     15        1          -0.001128271   -0.000962810   -0.000074197
     16        1           0.000172027   -0.000140276    0.000018218
     17        1           0.000043400   -0.000195730   -0.000010030
     18        1          -0.000053199    0.000181818   -0.000021780
     19        1           0.000911856   -0.000130802    0.000006187
     20        1          -0.000972771    0.000047761   -0.000245859
     21        1           0.000251230    0.000446997    0.000316032
     22        1           0.000862802   -0.000683006   -0.000467793
     23        1           0.000448039   -0.000580879   -0.001134718
 -------------------------------------------------------------------
 Cartesian Forces:  Max     0.005927218 RMS     0.001734289

 GradGradGradGradGradGradGradGradGradGradGradGradGradGradGradGradGradGrad
 Berny optimization.
 Using GEDIIS/GDIIS optimizer.
 FormGI is forming the generalized inverse of G from B-inverse, IUseBI=4.
 Internal  Forces:  Max     0.008436652 RMS     0.001701976
 Search for a local minimum.
 Step number   2 out of a maximum of  123
 All quantities printed in internal units (Hartrees-Bohrs-Radians)
 Mixed Optimization -- RFO/linear search
 Update second derivatives using D2CorX and points    1    2
 DE= -2.38D-03 DEPred=-2.98D-03 R= 7.98D-01
 TightC=F SS=  1.41D+00  RLast= 3.88D-01 DXNew= 5.0454D-01 1.1635D+00
 Trust test= 7.98D-01 RLast= 3.88D-01 DXMaxT set to 5.05D-01
 ITU=  1  0
 Use linear search instead of GDIIS.
     Eigenvalues ---    0.01005   0.01015   0.01455   0.01741   0.01802
     Eigenvalues ---    0.02105   0.02122   0.02126   0.02143   0.02151
     Eigenvalues ---    0.02153   0.02154   0.02159   0.02169   0.02198
     Eigenvalues ---    0.02228   0.02238   0.02280   0.02285   0.02545
     Eigenvalues ---    0.14126   0.15997   0.15998   0.15999   0.16000
     Eigenvalues ---    0.16000   0.16000   0.16000   0.16080   0.21808
     Eigenvalues ---    0.21998   0.22002   0.22448   0.23265   0.23454
     Eigenvalues ---    0.23986   0.24967   0.24998   0.29659   0.33079
     Eigenvalues ---    0.34332   0.35035   0.35089   0.35093   0.35095
     Eigenvalues ---    0.35127   0.35177   0.35200   0.35368   0.35470
     Eigenvalues ---    0.41785   0.41916   0.42723   0.43912   0.45610
     Eigenvalues ---    0.45780   0.46230   0.46402   0.46862   0.47018
     Eigenvalues ---    0.50842   0.53681   0.92434
 RFO step:  Lambda=-1.50540619D-03 EMin= 1.00526663D-02
 Quartic linear search produced a step of -0.12860.
 Iteration  1 RMS(Cart)=  0.07632148 RMS(Int)=  0.00116180
 Iteration  2 RMS(Cart)=  0.00185452 RMS(Int)=  0.00017251
 Iteration  3 RMS(Cart)=  0.00000193 RMS(Int)=  0.00017251
 Iteration  4 RMS(Cart)=  0.00000000 RMS(Int)=  0.00017251
 Variable       Old X    -DE/DX   Delta X   Delta X   Delta X     New X
                                 (Linear)    (Quad)   (Total)
    R1        2.32300  -0.00447  -0.00023  -0.00341  -0.00364   2.31936
    R2        2.82825   0.00212  -0.00310   0.01671   0.01361   2.84186
    R3        2.82742   0.00360  -0.00424   0.02451   0.02027   2.84769
    R4        2.65152   0.00166  -0.00068   0.00582   0.00518   2.65671
    R5        2.64968   0.00107  -0.00061   0.00437   0.00379   2.65347
    R6        2.63764  -0.00058   0.00016  -0.00158  -0.00142   2.63622
    R7        2.05207  -0.00101   0.00028  -0.00351  -0.00323   2.04884
    R8        2.63838  -0.00034  -0.00024   0.00014  -0.00014   2.63824
    R9        2.05321  -0.00006   0.00026  -0.00109  -0.00083   2.05238
   R10        2.64161  -0.00008  -0.00077   0.00247   0.00166   2.64327
   R11        2.05391  -0.00009   0.00017  -0.00083  -0.00067   2.05325
   R12        2.63328  -0.00139   0.00046  -0.00435  -0.00390   2.62938
   R13        2.05313   0.00003   0.00020  -0.00065  -0.00045   2.05268
   R14        2.05033   0.00020   0.00081  -0.00250  -0.00168   2.04865
   R15        2.64582   0.00139  -0.00099   0.00647   0.00551   2.65134
   R16        2.64851   0.00213  -0.00306   0.01524   0.01223   2.66074
   R17        2.62730  -0.00073   0.00059  -0.00343  -0.00286   2.62444
   R18        2.05140  -0.00001   0.00051  -0.00190  -0.00139   2.05002
   R19        2.63961   0.00006  -0.00260   0.00942   0.00676   2.64637
   R20        2.05195   0.00003  -0.00032   0.00125   0.00092   2.05288
   R21        2.53402  -0.00172   0.00266  -0.01264  -0.01002   2.52400
   R22        2.05727   0.00016  -0.00047   0.00212   0.00165   2.05892
   R23        2.53654  -0.00250   0.00326  -0.01598  -0.01270   2.52384
   R24        2.05461  -0.00071  -0.00024  -0.00086  -0.00110   2.05351
    A1        2.10146  -0.00377  -0.00266  -0.00325  -0.00595   2.09551
    A2        2.08916  -0.00466  -0.00149  -0.01062  -0.01214   2.07702
    A3        2.09251   0.00844   0.00416   0.01401   0.01814   2.11065
    A4        2.13100   0.00584  -0.00092   0.02286   0.02152   2.15252
    A5        2.06775  -0.00432  -0.00019  -0.01500  -0.01552   2.05223
    A6        2.08352  -0.00156   0.00115  -0.00976  -0.00879   2.07473
    A7        2.09863   0.00028  -0.00094   0.00495   0.00408   2.10270
    A8        2.09675   0.00023   0.00263  -0.00858  -0.00601   2.09074
    A9        2.08749  -0.00051  -0.00167   0.00333   0.00158   2.08907
   A10        2.09467   0.00031   0.00021   0.00031   0.00054   2.09521
   A11        2.09247  -0.00034   0.00030  -0.00264  -0.00235   2.09012
   A12        2.09602   0.00003  -0.00051   0.00235   0.00183   2.09785
   A13        2.09432  -0.00004   0.00033  -0.00202  -0.00174   2.09258
   A14        2.09379   0.00006  -0.00001   0.00066   0.00067   2.09446
   A15        2.09507  -0.00003  -0.00033   0.00136   0.00105   2.09612
   A16        2.09555  -0.00001  -0.00020   0.00011  -0.00010   2.09545
   A17        2.09635  -0.00008  -0.00006   0.00011   0.00006   2.09641
   A18        2.09125   0.00008   0.00026  -0.00023   0.00004   2.09130
   A19        2.09938   0.00102  -0.00057   0.00608   0.00556   2.10494
   A20        2.07751  -0.00143   0.00266  -0.01677  -0.01414   2.06336
   A21        2.10629   0.00041  -0.00209   0.01071   0.00858   2.11488
   A22        2.08241  -0.00458   0.00073  -0.01970  -0.01934   2.06307
   A23        2.14452   0.00631  -0.00117   0.02504   0.02336   2.16788
   A24        2.05490  -0.00178   0.00052  -0.00789  -0.00758   2.04732
   A25        2.07505   0.00120   0.00125   0.00098   0.00227   2.07732
   A26        2.08702  -0.00163   0.00182  -0.01504  -0.01325   2.07377
   A27        2.12111   0.00043  -0.00307   0.01408   0.01098   2.13209
   A28        2.06831  -0.00035  -0.00046   0.00021  -0.00028   2.06804
   A29        2.11019   0.00079   0.00015   0.00350   0.00366   2.11385
   A30        2.10468  -0.00044   0.00031  -0.00371  -0.00339   2.10129
   A31        2.16282  -0.00089  -0.00035  -0.00298  -0.00339   2.15942
   A32        2.10735  -0.00072   0.00056  -0.00624  -0.00566   2.10168
   A33        2.01302   0.00161  -0.00021   0.00922   0.00902   2.02204
   A34        2.03714   0.00245  -0.00000   0.00778   0.00781   2.04495
   A35        2.16783  -0.00065  -0.00098   0.00135   0.00043   2.16827
   A36        2.10693  -0.00039   0.00309  -0.01425  -0.01125   2.09569
   A37        2.00813   0.00103  -0.00208   0.01249   0.01030   2.01844
    D1        2.62132  -0.00159  -0.01773  -0.02580  -0.04363   2.57768
    D2       -0.47407  -0.00060  -0.01893   0.02257   0.00372  -0.47034
    D3       -0.53152  -0.00133  -0.01644  -0.01213  -0.02865  -0.56017
    D4        2.65628  -0.00034  -0.01764   0.03624   0.01871   2.67499
    D5       -0.42334  -0.00054  -0.01406   0.00587  -0.00811  -0.43145
    D6        2.66097  -0.00164  -0.01206  -0.04813  -0.06029   2.60067
    D7        2.72942  -0.00081  -0.01534  -0.00774  -0.02298   2.70644
    D8       -0.46947  -0.00190  -0.01334  -0.06175  -0.07516  -0.54462
    D9       -3.08951   0.00038  -0.00578   0.03794   0.03256  -3.05695
   D10        0.02515   0.00009  -0.00499   0.02489   0.02024   0.04538
   D11        0.00547  -0.00069  -0.00460  -0.01098  -0.01553  -0.01006
   D12        3.12012  -0.00098  -0.00381  -0.02403  -0.02786   3.09227
   D13        3.11151  -0.00014   0.00310  -0.02636  -0.02272   3.08879
   D14       -0.02600  -0.00037   0.00272  -0.03323  -0.03001  -0.05601
   D15        0.01483   0.00062   0.00197   0.01977   0.02162   0.03646
   D16       -3.12267   0.00039   0.00160   0.01290   0.01433  -3.10834
   D17       -0.02158   0.00035   0.00422  -0.00327   0.00106  -0.02052
   D18        3.12717   0.00002   0.00196  -0.00615  -0.00417   3.12300
   D19       -3.13638   0.00063   0.00338   0.00990   0.01349  -3.12289
   D20        0.01237   0.00030   0.00113   0.00701   0.00826   0.02063
   D21        0.01744   0.00008  -0.00120   0.00889   0.00765   0.02509
   D22       -3.12524  -0.00019  -0.00268   0.00399   0.00126  -3.12397
   D23       -3.13133   0.00040   0.00105   0.01176   0.01289  -3.11844
   D24        0.00918   0.00014  -0.00042   0.00687   0.00650   0.01568
   D25        0.00283  -0.00015  -0.00143  -0.00020  -0.00168   0.00115
   D26        3.13617  -0.00011  -0.00125  -0.00069  -0.00191   3.13427
   D27       -3.13768   0.00011   0.00005   0.00470   0.00471  -3.13297
   D28       -0.00433   0.00015   0.00023   0.00421   0.00449   0.00015
   D29       -0.01902  -0.00021   0.00104  -0.01429  -0.01319  -0.03221
   D30        3.11841   0.00002   0.00143  -0.00737  -0.00574   3.11267
   D31        3.13080  -0.00024   0.00086  -0.01380  -0.01297   3.11783
   D32       -0.01495  -0.00002   0.00125  -0.00688  -0.00552  -0.02047
   D33        3.10846  -0.00021   0.00285  -0.02896  -0.02546   3.08299
   D34       -0.03023  -0.00035   0.00273  -0.03336  -0.03006  -0.06030
   D35        0.02123   0.00056   0.00099   0.02118   0.02203   0.04326
   D36       -3.11747   0.00042   0.00087   0.01678   0.01743  -3.10003
   D37       -3.09305   0.00051  -0.00594   0.04198   0.03655  -3.05650
   D38        0.02173   0.00011  -0.00435   0.02257   0.01863   0.04036
   D39       -0.00790  -0.00066  -0.00397  -0.01161  -0.01558  -0.02348
   D40        3.10688  -0.00106  -0.00238  -0.03103  -0.03350   3.07338
   D41       -0.01352  -0.00019   0.00078  -0.01288  -0.01202  -0.02554
   D42        3.13084  -0.00015   0.00102  -0.01100  -0.01002   3.12082
   D43        3.12511  -0.00005   0.00091  -0.00844  -0.00731   3.11781
   D44       -0.01371  -0.00001   0.00115  -0.00656  -0.00530  -0.01902
   D45       -0.00902  -0.00015   0.00020  -0.00674  -0.00661  -0.01563
   D46        3.13177   0.00021   0.00118   0.00336   0.00445   3.13622
   D47        3.12981  -0.00019  -0.00004  -0.00860  -0.00859   3.12122
   D48       -0.01258   0.00017   0.00094   0.00150   0.00247  -0.01011
   D49        0.02225   0.00011  -0.00291   0.01667   0.01376   0.03600
   D50       -3.11859  -0.00023  -0.00384   0.00707   0.00317  -3.11543
   D51       -0.01352   0.00032   0.00486  -0.00718  -0.00225  -0.01577
   D52       -3.12967   0.00072   0.00331   0.01161   0.01525  -3.11442
         Item               Value     Threshold  Converged?
 Maximum Force            0.008437     0.000015     NO 
 RMS     Force            0.001702     0.000010     NO 
 Maximum Displacement     0.209521     0.000060     NO 
 RMS     Displacement     0.076549     0.000040     NO 
 Predicted change in Energy=-8.460550D-04
 GradGradGradGradGradGradGradGradGradGradGradGradGradGradGradGradGradGrad

                          Input orientation:                          
 ---------------------------------------------------------------------
 Center     Atomic      Atomic             Coordinates (Angstroms)
 Number     Number       Type             X           Y           Z
 ---------------------------------------------------------------------
      1          8           0        0.391287   -1.672676   -1.693303
      2          6           0        0.251959   -0.799804   -0.841785
      3          6           0       -1.124867   -0.417710   -0.372845
      4          6           0       -1.403201    0.013239    0.936079
      5          6           0       -2.717176    0.256732    1.336436
      6          6           0       -3.765611    0.096708    0.428546
      7          6           0       -3.499526   -0.337116   -0.874342
      8          6           0       -2.192200   -0.610110   -1.264715
      9          6           0        1.476843   -0.127881   -0.276959
     10          6           0        2.693046   -0.826408   -0.314284
     11          6           0        3.845776   -0.196780    0.136864
     12          6           0        3.752479    1.127012    0.584063
     13          7           0        2.617172    1.830582    0.586745
     14          6           0        1.511604    1.205787    0.173146
     15          1           0       -0.595052    0.122403    1.650552
     16          1           0       -2.920405    0.572597    2.355496
     17          1           0       -4.787111    0.302364    0.736435
     18          1           0       -4.313276   -0.469370   -1.581605
     19          1           0       -1.968312   -0.972644   -2.261567
     20          1           0        2.700978   -1.842636   -0.693829
     21          1           0        4.801998   -0.712289    0.141162
     22          1           0        4.636069    1.649442    0.949327
     23          1           0        0.607527    1.808559    0.160386
 ---------------------------------------------------------------------
                    Distance matrix (angstroms):
                    1          2          3          4          5
     1  O    0.000000
     2  C    1.227354   0.000000
     3  C    2.370078   1.503846   0.000000
     4  C    3.602242   2.561523   1.405870   0.000000
     5  C    4.750208   3.831016   2.431452   1.395029   0.000000
     6  C    4.991269   4.307940   2.807202   2.417755   1.396097
     7  C    4.194382   3.780051   2.428374   2.791944   2.419145
     8  C    2.826153   2.487724   1.404155   2.419624   2.791594
     9  C    2.360266   1.506934   2.619559   3.128263   4.510074
    10  C    2.813531   2.497573   3.840173   4.364362   5.759217
    11  C    4.178669   3.773183   5.001590   5.313625   6.687076
    12  C    4.931760   4.242558   5.204838   5.286345   6.571141
    13  N    4.735609   3.814952   4.469730   4.425852   5.611979
[...]
 0.00196730,0.00079541,-0.00064295,-0.00013332,-0.00000369,0.00001631,-
 0.00053774,-0.00025661,0.00005741,0.00013116,0.00066912,-0.00014051,-0
 .00029501,-0.00904337,-0.27871688,-0.07935116,0.07020415,-0.02626663,0
 .00163158,-0.02015014,-0.04845859,-0.01884347,-0.02212379,0.05339665,0
 .01398357,-0.06652206,-0.16412781,-0.04674823,-0.07895660,0.62095905,-
 0.00143266,0.00016289,0.00308465,-0.00566017,-0.01100907,-0.00909859,0
 .00001545,-0.00009671,-0.00055181,0.00118307,0.00053553,-0.00027512,0.
 00018667,-0.00011642,0.00025234,-0.00000151,-0.00003303,-0.00009150,-0
 .00003193,-0.00010389,0.00001960,0.00008115,-0.00000184,-0.00016315,-0
 .01376496,-0.06432432,-0.09385148,0.03297050,-0.00652080,0.01202124,-0
 .00879915,-0.02172036,-0.01959106,-0.02856042,0.02423017,0.00611023,-0
 .06490120,-0.05382285,-0.09936701,0.08905517,0.14633249,0.23045586,0.0
 0027613,-0.00038418,-0.00033099,-0.00013219,0.00008444,0.00058454,0.00
 844823,0.00053883,0.00353669,-0.21889551,-0.02381031,-0.13804929,-0.01
 769058,-0.00458845,-0.02098245,-0.00397847,0.00213863,0.00304804,-0.00
 010256,0.00027750,0.00088727,0.00071307,0.00100506,0.00158635,-0.00070
 519,0.00028321,0.00077233,0.00028912,0.00007055,-0.00012854,-0.0001324
 2,-0.00014604,-0.00000841,-0.00017978,0.00016050,-0.00010827,-0.000034
 77,0.00000113,0.00033190,-0.00126368,-0.00167797,0.00096604,0.23363689
 ,0.00051250,-0.00024385,-0.00098319,-0.00170462,-0.00301173,0.00164391
 ,-0.00733498,0.00067966,-0.00649176,-0.02418396,-0.04343589,-0.0298294
 5,0.00493984,0.00431599,0.00433055,0.00163385,0.00639774,-0.00256021,0
 .00013628,-0.00035393,0.00014463,0.00156521,0.00495164,-0.00361287,-0.
 00059041,0.00037460,0.00020060,0.00044353,-0.00012727,-0.00012765,-0.0
 0006789,-0.00026180,-0.00005904,-0.00020293,0.00013719,-0.00004136,0.0
 0026139,-0.00004446,0.00005310,-0.00087222,0.00015443,0.00054971,0.026
 74452,0.03494605,0.00053491,-0.00003354,0.00032187,-0.00228325,0.00151
 299,0.00012050,-0.02335396,-0.00304787,-0.01416042,-0.13760486,-0.0302
 5468,-0.17650576,0.00885505,0.00139609,0.01027420,0.00220061,-0.002344
 26,0.00086264,0.00084754,-0.00000469,-0.00040375,0.00266720,-0.0036894
 9,-0.00387197,0.00046630,-0.00008966,0.00016412,0.00067487,-0.00005146
 ,0.00028712,-0.00026470,-0.00034902,-0.00023636,-0.00024162,0.00049927
 ,0.00006153,0.00026083,0.00001543,0.00017250,0.00063097,-0.00033881,0.
 00008861,0.14795032,0.03446171,0.18310934,-0.00075328,0.00051261,0.000
 38526,0.00124188,0.00012198,0.00112922,-0.00556333,0.00121509,0.000318
 30,-0.00100878,0.00993443,0.02963263,-0.06836931,0.01799092,0.04427538
 ,0.00882651,-0.00855276,-0.02408842,-0.00373109,0.00008660,-0.00276986
 ,-0.00117156,-0.00012290,-0.00041002,-0.00012315,0.00005990,-0.0000519
 0,0.00000285,-0.00005765,-0.00003793,-0.00001180,-0.00002379,-0.000014
 62,-0.00002473,0.00000745,0.00000520,-0.00002537,-0.00005266,-0.000049
 17,-0.00005087,0.00010775,0.00003156,0.00106776,-0.00053316,-0.0001837
 5,0.06827829,0.00000579,-0.00032665,0.00005676,-0.00042078,0.00059616,
 -0.00037438,0.00188574,0.00639553,-0.00198712,-0.00015489,0.00061129,-
 0.00477838,0.01844513,-0.06766299,-0.09135229,0.00115678,0.00114850,-0
 .00359660,-0.00038573,0.00642422,-0.00195425,0.00020094,-0.00032086,0.
 00023466,0.00003407,-0.00002447,0.00003850,-0.00000916,0.00001791,0.00
 001170,0.00000563,0.00000186,0.00000594,-0.00001067,0.00000526,-0.0000
 0792,0.00005739,-0.00000032,0.00002276,-0.00004993,-0.00000064,0.00000
 055,-0.00037430,-0.00344473,0.00139037,-0.01986318,0.06075754,0.000439
 95,-0.00014506,-0.00029363,-0.00098498,-0.00013505,0.00004548,0.001699
 88,-0.00173190,0.00212021,-0.00019310,-0.00227726,-0.00486333,0.044156
 25,-0.09152174,-0.30019445,0.00606351,-0.00612213,-0.01433290,-0.00393
 908,-0.00187213,0.00009009,-0.00054799,0.00035325,0.00055327,0.0001247
 0,-0.00000295,-0.00000510,-0.00003214,0.00006117,0.00002762,0.00001817
 ,0.00003728,0.00002360,0.00001784,-0.00002595,-0.00000497,0.00001500,0
 .00004641,0.00003358,0.00007235,-0.00007125,-0.00004738,0.00034960,0.0
 0140690,0.00042384,-0.04766049,0.10072233,0.31694385,-0.00013722,0.000
 09967,0.00005846,0.00023437,-0.00016177,-0.00000328,0.00045408,-0.0002
 7899,-0.00054749,-0.00167771,-0.00047342,-0.00426276,-0.01780201,0.005
 39845,0.00967479,-0.30515209,0.05297898,0.07545177,-0.00111165,0.00026
 517,-0.00049925,0.00166271,0.00074490,0.00063257,-0.00009606,0.0000135
 1,0.00001766,0.00006496,-0.00004598,-0.00000921,-0.00002958,-0.0000454
 2,-0.00002693,-0.00000876,0.00004918,0.00000958,-0.00001785,-0.0000218
 0,0.00000678,-0.00000235,-0.00000667,0.00004035,-0.00095869,0.00027083
 ,0.00053291,0.00092480,-0.00052292,-0.00004827,0.32305666,0.00021539,0
 .00007529,-0.00013374,-0.00012922,-0.00119573,0.00035167,-0.00029182,-
 0.00048759,0.00015070,-0.00027689,0.00651549,-0.00276139,-0.00477619,0
 .00427352,0.00146345,0.05296275,-0.05088295,-0.02285419,0.01052799,0.0
 0151887,-0.00218758,0.00050038,0.00562481,-0.00428308,-0.00012727,0.00
 006044,-0.00004258,0.00006168,-0.00001164,-0.00002535,-0.00002879,-0.0
 0004207,-0.00000656,-0.00003505,0.00004426,0.00000624,0.00007253,0.000
 00005,0.00002393,-0.00005021,0.00003759,0.00003269,-0.00029367,0.00009
 089,0.00009114,-0.00028500,-0.00336506,0.00141893,-0.05798139,0.041000
 15,0.00013326,0.00003885,0.00023184,-0.00004744,0.00030828,-0.00022426
 ,-0.00061835,-0.00015131,-0.00112098,-0.00327984,-0.00273285,-0.001648
 47,-0.02009405,0.00439080,0.01038601,0.07553744,-0.02289888,-0.0826025
 2,0.02917986,-0.00520688,-0.00333175,-0.00034087,-0.00406936,-0.004496
 69,0.00009296,-0.00001749,0.00001855,0.00000667,0.00001827,0.00003155,
 0.00000242,0.00000769,0.00000158,0.00000193,0.00000168,-0.00000196,0.0
 0000955,0.00001841,0.00001731,0.00001917,-0.00006321,-0.00002302,-0.00
 105121,0.00021337,0.00037399,0.00062520,0.00140230,0.00045939,-0.08130
 760,0.02736532,0.08157656,-0.00004273,0.00031664,0.00039984,-0.0000368
 5,-0.00090552,-0.00172648,-0.00396742,0.00253436,0.00303057,-0.0000987
 9,0.00033811,0.00095684,0.00091073,0.00107456,0.00137113,0.00834939,0.
 00131280,0.00542969,-0.22150708,-0.02857945,-0.13546791,-0.01843674,-0
 .00515569,-0.02071520,-0.00039572,0.00017039,0.00028292,-0.00004200,-0
 .00015684,-0.00005858,-0.00003411,0.00000588,-0.00003644,0.00000824,0.
 00001541,0.00000944,-0.00006277,-0.00005519,-0.00004991,-0.00002501,0.
 00009499,0.00003710,0.00000662,-0.00016984,-0.00009417,0.00032724,0.00
 010819,0.00035336,0.00076049,-0.00052668,-0.00025869,0.23322611,0.0001
 0444,-0.00004369,-0.00005395,0.00017929,0.00041721,0.00010082,0.001958
 43,0.00655689,-0.00232483,0.00036186,-0.00042741,-0.00023940,0.0014959
 4,0.00542099,-0.00389752,-0.00914576,0.00125389,-0.00623048,-0.0285041
 7,-0.04522963,-0.03315138,0.00492615,0.00378102,0.00467857,0.00019942,
 -0.00012940,0.00008500,0.00001349,0.00004158,-0.00000432,0.00001849,-0
 .00000174,-0.00000407,0.00000830,-0.00001684,-0.00000890,-0.00001643,0
 .00001844,-0.00002463,0.00001665,-0.00008651,0.00000908,-0.00013765,-0
 .00113323,0.00039036,-0.00047211,0.00023089,-0.00043275,-0.00029126,-0
 .00318299,0.00152166,0.03001710,0.03602188,-0.00022196,0.00003802,0.00
 001071,0.00057953,0.00005104,0.00050373,0.00187474,-0.00261192,0.00097
 801,0.00095188,-0.00017044,-0.00035896,0.00253198,-0.00388986,-0.00356
 204,-0.02437592,-0.00328508,-0.01397535,-0.13530006,-0.03300113,-0.170
 22645,0.00884960,0.00169741,0.00997475,0.00003655,0.00001863,-0.000132
 54,0.00004291,0.00000501,0.00000488,-0.00000938,-0.00002480,0.00000320
 ,0.00000035,0.00002063,0.00000484,-0.00000742,-0.00000865,0.00002121,0
 .00000715,0.00001129,0.00000928,-0.00007877,0.00045350,-0.00004561,-0.
 00127394,-0.00022107,-0.00077546,0.00042897,0.00143535,0.00058562,0.14
 613836,0.03791423,0.17680424,-0.00065978,0.00061881,0.00163052,0.00055
 277,-0.00204613,-0.00229467,0.00896628,-0.00846109,-0.02210969,-0.0041
 7676,0.00000034,-0.00279398,-0.00103269,-0.00006919,-0.00030554,-0.005
 14810,0.00157172,0.00034909,-0.00055407,0.01073476,0.02790102,-0.06935
 167,0.01952607,0.04938487,0.00029244,0.00048450,0.00016956,-0.00002095
 ,0.00003823,0.00007060,-0.00002615,0.00005183,0.00002114,-0.00000816,0
 .00002543,-0.00000204,0.00008841,0.00012664,0.00008506,0.00023916,-0.0
 0019854,-0.00007644,0.00033763,-0.00034465,-0.00142818,0.00013312,-0.0
 0010818,0.00010175,-0.00014874,0.00042942,0.00141970,0.00107805,-0.000
 69375,-0.00019522,0.06949049,0.00126765,0.00006185,0.00042976,0.000388
 71,-0.00424782,0.00000935,-0.00117152,0.00220110,-0.00451043,-0.000214
 34,0.00508756,-0.00183394,-0.00007392,-0.00023901,0.00043814,0.0016170
 6,0.00664907,-0.00187169,0.00028701,0.00181277,-0.00482208,0.02037902,
 -0.07679156,-0.09949209,-0.00021430,0.00011455,-0.00014838,-0.00002613
 ,-0.00006419,-0.00011912,-0.00001720,0.00000870,0.00003701,0.00001736,
 -0.00000744,-0.00001011,-0.00003694,-0.00008709,0.00000338,-0.00010739
 ,0.00011570,0.00001778,0.00020575,0.00052840,-0.00029655,-0.00007610,-
 0.00104936,0.00032464,-0.00004538,-0.00007063,-0.00016582,-0.00043698,
 -0.00348506,0.00154300,-0.02177320,0.06947057,0.00153744,0.00122840,0.
 00202490,0.00186013,-0.00070223,-0.00226639,0.00392396,-0.00741415,-0.
 01523926,-0.00385063,-0.00188828,0.00004243,-0.00015300,0.00035648,0.0
 0044982,0.00097610,-0.00230770,0.00206802,-0.00046861,-0.00239072,-0.0
 0262543,0.04734497,-0.09895737,-0.29639430,-0.00004191,0.00003532,0.00
 020097,0.00003176,-0.00001154,0.00007007,-0.00001469,0.00002567,-0.000
 02103,-0.00000398,0.00002246,0.00000423,0.00003755,0.00004842,0.000016
 73,0.00006396,-0.00008813,-0.00001415,0.00033747,-0.00050196,-0.000672
 80,0.00009064,0.00038226,-0.00017273,-0.00013212,-0.00003721,-0.000225
 13,0.00037881,0.00165196,0.00019812,-0.05187939,0.11048817,0.31256695,
 0.00041974,-0.00198850,-0.00081043,0.00026398,0.00249047,0.00297346,0.
 00034019,-0.00009206,-0.00040950,0.00017547,0.00006571,0.00013891,0.00
 005445,-0.00003509,-0.00002655,0.00003201,-0.00000659,-0.00002732,-0.0
 0001574,-0.00002041,-0.00006776,-0.00001638,-0.00007099,-0.00004388,0.
 00397126,0.02572422,0.00998153,-0.05986342,0.00632135,0.00084291,0.006
 15731,-0.02518149,-0.01013483,-0.00439543,-0.00112920,-0.00333530,-0.0
 0057733,-0.00036090,0.00056904,-0.00527706,0.00253628,-0.00153808,-0.0
 0000096,0.00002666,-0.00005842,0.00002812,-0.00000469,-0.00002321,0.00
 000947,-0.00000386,-0.00001041,0.00001862,0.00000029,0.00000623,-0.000
 07482,0.00002577,-0.00003441,0.05754322,-0.00179363,0.00137028,0.00090
 843,-0.00136251,-0.00193896,-0.00051554,0.00002960,0.00018484,-0.00003
 429,-0.00000644,-0.00000232,-0.00004734,-0.00003196,-0.00000058,0.0000
 1762,-0.00000179,0.00000791,0.00001495,0.00000814,-0.00002374,0.000023
 17,-0.00002993,0.00005954,-0.00001379,0.00058310,-0.01121399,-0.006714
 26,0.00822504,-0.30296347,-0.10362827,0.00210016,-0.00655004,-0.004606
 38,-0.00176022,0.00216497,-0.00349806,-0.00047877,-0.00015887,0.001519
 58,0.00370773,0.00151606,-0.00196833,0.00000089,-0.00001709,0.00003189
 ,-0.00000494,-0.00000153,0.00000463,0.00000085,0.00000407,0.00000264,-
 0.00000055,-0.00000334,0.00000037,0.00001791,0.00001210,0.00001382,-0.
 00867733,0.31853136,-0.00119187,-0.00008471,-0.00012898,0.00021019,0.0
 0044057,-0.00399383,0.00031032,-0.00014248,0.00011229,0.00011051,0.000
 06743,0.00012769,0.00004440,0.00000044,-0.00004758,0.00000238,-0.00001
 233,-0.00002322,0.00000324,0.00004274,0.00000194,0.00004753,-0.0001322
 7,-0.00007922,0.00196186,-0.00096067,0.00526267,0.00012356,-0.10466624
 ,-0.08422379,0.00084780,-0.00952424,0.00171748,-0.00346933,-0.00281500
 ,0.00724538,0.00061206,0.00148142,-0.00313991,-0.00123544,-0.00212631,
 0.00643712,-0.00001758,-0.00002103,-0.00002849,0.00001875,-0.00000634,
 -0.00001466,0.00000411,-0.00000670,-0.00000438,0.00001921,-0.00000383,
 -0.00000074,-0.00004422,0.00000878,0.00000079,0.00065209,0.11680101,0.
 07473761,0.00003787,-0.00032541,-0.00028386,-0.00014570,0.00149456,0.0
 0079627,-0.00025066,-0.00029666,-0.00020297,-0.00001451,-0.00003036,-0
 .00004619,-0.00003021,0.00001129,-0.00001616,-0.00000952,0.00000084,0.
 00001011,-0.00002042,0.00001965,-0.00001913,-0.00007647,0.00004778,0.0
 0013492,-0.00184085,-0.00314277,-0.00357771,-0.01830025,0.01379653,0.0
 0125655,-0.27934610,0.11896313,-0.00310620,0.00190179,-0.00181037,-0.0
 0038251,0.00192182,0.00073107,-0.00093412,0.00038207,-0.00090191,-0.00
 025371,0.00000656,-0.00000968,-0.00001600,-0.00001238,0.00000986,0.000
 01210,-0.00001181,-0.00000035,0.00000430,-0.00002690,0.00000275,-0.000
 00102,0.00001950,-0.00001363,0.00000354,0.00090976,-0.00048280,0.00087
 828,0.29467798,0.00020910,-0.00005521,0.00003524,-0.00075308,0.0007677
 2,0.00010151,-0.00008405,-0.00021000,-0.00007362,0.00000205,0.00001073
 ,0.00000974,-0.00001528,0.00002338,0.00000212,-0.00000051,0.00000313,0
 .00001171,0.00000132,0.00001329,-0.00002298,-0.00005485,0.00000419,0.0
 0003195,-0.00212735,0.00023755,-0.00387310,-0.01486266,0.01150591,0.00
 055798,0.11872764,-0.12001244,-0.00847462,0.02854064,-0.00697444,0.002
 98789,0.00105710,-0.00485065,-0.00472319,-0.00188159,-0.00104727,-0.00
 081808,-0.00002281,-0.00002688,0.00001775,-0.00000415,-0.00000007,0.00
 000183,0.00000099,-0.00000376,0.00000161,-0.00000493,0.00000050,0.0000
 0201,-0.00000105,-0.00000525,0.00000048,0.00021160,0.00012548,0.001734
 82,-0.12827564,0.12031216,-0.00004922,-0.00009263,-0.00010742,-0.00032
 664,0.00031471,0.00062713,-0.00025227,0.00000427,-0.00017221,-0.000021
 24,0.00000526,-0.00011340,0.00002552,-0.00001792,0.00001457,-0.0000071
 7,-0.00001040,-0.00001821,-0.00002508,-0.00000400,-0.00000332,-0.00002
 779,0.00000312,0.00006266,-0.00316250,-0.00352764,0.00631791,-0.009590
 86,0.00643466,0.00298560,-0.00315090,-0.00888892,-0.04021585,0.0114924
 0,-0.00274884,0.00149159,-0.00078672,-0.00520532,0.00593384,-0.0007762
 6,-0.00064451,-0.00049974,0.00005011,0.00002139,0.00000650,-0.00000225
 ,-0.00000184,0.00000263,-0.00000072,0.00000437,-0.00000054,-0.00000934
 ,0.00000692,-0.00000070,0.00000507,-0.00000512,-0.00000266,0.00117138,
 0.00178873,-0.00325979,0.00466707,0.01069448,0.03081161,-0.00007611,-0
 .00012222,-0.00025200,0.00038353,-0.00011877,0.00056238,-0.00011236,0.
 00000475,-0.00002942,-0.00002392,-0.00006252,-0.00000729,0.00001118,-0
 .00002832,-0.00003210,-0.00001428,-0.00000123,-0.00001765,-0.00002588,
 0.00000873,0.00002420,0.00003275,0.00003279,0.00005886,-0.00035029,0.0
 0001249,0.00014014,0.00121235,0.00134354,-0.00073273,0.00586229,0.0027
 3149,0.00083216,-0.22305818,-0.10849714,-0.08028140,-0.03299179,-0.005
 92886,-0.00845275,-0.00193825,0.00302594,-0.00163929,0.00001172,0.0000
 2623,-0.00005280,-0.00000632,0.00000656,0.00000957,-0.00001240,0.00000
 280,0.00000032,-0.00001400,-0.00000191,-0.00000307,0.00001112,-0.00000
 336,-0.00000048,0.00012669,0.00016928,0.00022344,0.00032177,-0.0007634
 7,0.00035538,0.25134421,-0.00007029,0.00027330,-0.00003488,-0.00004687
 ,-0.00025454,0.00069418,-0.00010938,0.00001094,-0.00006923,0.00000693,
 -0.00001010,-0.00005643,-0.00001170,0.00000533,0.00000117,-0.00000323,
 -0.00000172,0.00000207,-0.00000588,-0.00000060,0.00000843,-0.00000963,
 0.00003309,0.00003162,0.00087971,-0.00054175,0.00011967,0.00232211,-0.
 00437103,-0.00406296,-0.02457997,-0.00823822,-0.01097246,-0.10959819,-
 0.12830370,-0.05625839,0.01835109,0.01171835,0.00980006,0.00479516,0.0
 0134477,-0.00245468,0.00002230,0.00000122,0.00001229,-0.00000349,0.000
 00287,0.00000370,-0.00000218,0.00000136,0.00000190,-0.00000705,-0.0000
 0084,-0.00000003,0.00001108,-0.00000214,0.00000355,-0.00138136,-0.0005
 2550,-0.00016688,0.00021538,0.00027756,0.00125168,0.10865175,0.1282173
 3,-0.00034783,-0.00029133,0.00021498,0.00030347,0.00052741,-0.00199561
 ,0.00012114,-0.00008507,0.00015068,-0.00000774,0.00001589,0.00007743,-
 0.00002215,-0.00000040,-0.00001462,0.00000605,0.00000723,0.00002220,0.
 00002295,0.00000882,-0.00002045,-0.00002856,-0.00004483,-0.00002041,0.
 00061638,0.00079718,-0.00022840,-0.00059686,-0.00448648,0.00531912,-0.
 00965200,-0.00493848,0.00308957,-0.08034756,-0.05644965,-0.08120166,0.
 00039497,0.00510644,-0.00157616,-0.00056139,-0.00331072,0.00917037,-0.
 00002722,-0.00000018,-0.00003802,0.00000049,-0.00000058,0.00000035,-0.
 00000387,-0.00000086,-0.00000077,0.00000099,0.00000376,-0.00000408,-0.
 00000017,-0.00000438,0.00000290,-0.00028020,0.00012899,-0.00064529,0.0
 0072308,0.00102708,-0.00228696,0.08972235,0.06211358,0.06952565,0.0002
 3987,0.00026983,0.00035205,-0.00060161,-0.00050280,0.00008294,-0.00035
 690,-0.00086711,-0.00035536,-0.00117704,-0.00116018,0.00128576,-0.0000
 1527,-0.00026857,0.00004700,-0.00011376,0.00004420,-0.00022236,-0.0002
 2243,0.00000850,0.00015348,0.00037194,0.00018115,0.00002631,0.00403754
 ,0.00005070,-0.00021422,0.00098910,-0.00023032,-0.00124665,-0.00010961
 ,-0.00014590,0.00007425,-0.00133744,-0.00151346,-0.00310510,-0.0317345
 3,0.00694034,-0.00370275,-0.23921457,0.13336611,0.00209245,-0.00071893
 ,-0.00054649,-0.00003982,0.00002142,-0.00001168,-0.00000477,-0.0000006
 1,0.00003344,-0.00002430,0.00000464,-0.00003956,0.00001851,-0.00000709
 ,0.00002208,-0.00000711,0.00017085,-0.00021182,-0.00011128,-0.00009333
 ,0.00010097,0.00042205,-0.00069386,0.00057370,-0.00003633,0.27056161,-
 0.00065550,0.00016357,-0.00013567,0.00191328,0.00018308,0.00136658,-0.
 00058461,-0.00020614,-0.00053803,-0.00046733,-0.00001298,-0.00006359,-
 0.00034783,0.00020181,0.00015428,0.00009171,0.00002031,0.00024129,0.00
 017713,-0.00011780,-0.00009662,-0.00039950,0.00020374,-0.00008570,0.02
 522116,-0.01070991,-0.00042476,-0.00134017,-0.00452559,-0.00430399,-0.
 00086686,-0.00012706,-0.00000394,-0.00351888,0.00129671,-0.00389921,-0
 .01764949,0.01337660,0.00203040,0.13342050,-0.15040415,-0.00888050,-0.
 00009791,-0.00047696,0.00068073,0.00001517,0.00000464,-0.00004290,0.00
 005465,-0.00000436,0.00001304,0.00001030,-0.00000262,0.00002253,0.0000
 5903,-0.00001281,0.00004231,0.00155011,-0.00057716,0.00009184,-0.00000
 326,-0.00009559,0.00061755,-0.00048855,0.00036402,-0.00012344,-0.13609
 315,0.15145864,-0.00015089,-0.00082873,-0.00063376,0.00196310,0.001591
 70,-0.00130718,0.00037892,0.00025507,0.00045965,0.00033011,0.00036941,
 0.00017238,-0.00016314,0.00000529,-0.00006615,0.00012565,0.00001905,0.
 00021238,0.00018048,-0.00006462,-0.00025290,-0.00043056,-0.00015064,-0
 .00020582,0.00735031,-0.00758620,0.00468595,-0.00142399,-0.00408947,0.
 00488562,-0.00027396,0.00012557,-0.00049320,-0.00353206,-0.00332859,0.
 00864586,-0.01248399,0.00693595,-0.00380282,0.00282952,-0.00791229,-0.
 04407529,0.00038207,0.00074933,-0.00030359,0.00002971,0.00001267,-0.00
 001929,-0.00001644,-0.00000456,-0.00000194,0.00000847,0.00001369,-0.00
 001665,-0.00000886,-0.00002028,-0.00001203,0.00046476,-0.00022956,-0.0
 0005308,0.00035335,0.00076737,-0.00157324,-0.00042780,0.00003204,0.000
 45920,0.00451525,0.01333781,0.03329590\\-0.00000010,0.00000002,0.00000
 068,-0.00000086,0.00000128,-0.00000040,-0.00000167,-0.00000055,-0.0000
 0021,0.00000020,-0.00000065,0.00000078,-0.00000105,0.00000016,-0.00000
 067,0.00000021,0.00000022,0.00000218,0.00000064,-0.00000094,-0.0000004
 5,0.00000010,0.00000004,0.00000049,0.00000315,0.00000158,0.00000026,0.
 00000130,-0.00000056,0.00000043,-0.00000094,-0.00000167,-0.00000228,-0
 .00000374,0.00000404,0.00000333,0.00000546,0.00000058,-0.00000074,-0.0
 0000547,-0.00000343,-0.00000177,0.00000021,0.00000058,-0.00000040,0.00
 000080,-0.00000007,0.00000028,-0.00000005,-0.00000054,-0.00000012,-0.0
 0000009,-0.00000039,0.00000034,-0.00000019,-0.00000040,0.00000023,0.00
 000044,0.00000022,0.00000026,0.00000037,0.00000028,-0.00000061,0.00000
 086,0.00000034,-0.00000157,0.00000043,-0.00000018,-0.00000004\\\@


 THE MORE POWERFUL THE METHOD, THE MORE CATASTROPHIC THE ERRORS.
     -- M.D. KAMEN
 Job cpu time:       0 days  0 hours  0 minutes 56.2 seconds.
 Elapsed time:       0 days  0 hours  1 minutes  9.0 seconds.
 File lengths (MBytes):  RWF=    144 Int=      0 D2E=      0 Chk=      7 Scr=      1
 Normal termination of Gaussian 16 at Sat Nov 16 07:36:51 2024.
