 Entering Gaussian System, Link 0=g16
 Input=/Volumes/SSD-PSM960U3-UW/CoMFA_calc/KWOLFJPFCHCOCG-UHFFFAOYSA-N/opt0.gjf
 Output=/Volumes/SSD-PSM960U3-UW/CoMFA_calc/KWOLFJPFCHCOCG-UHFFFAOYSA-N/opt0.log
 Initial command:
 /Applications/g16/l1.exe "/Users/mac_poclab/PycharmProjects/CoMFA_model/Gau-68601.inp" -scrdir="/Users/mac_poclab/PycharmProjects/CoMFA_model/"
 Entering Link 1 = /Applications/g16/l1.exe PID=     68602.
  
 Copyright (c) 1988,1990,1992,1993,1995,1998,2003,2009,2016,
            Gaussian, Inc.  All Rights Reserved.
  
 This is part of the Gaussian(R) 16 program.  It is based on
 the Gaussian(R) 09 system (copyright 2009, Gaussian, Inc.),
 the Gaussian(R) 03 system (copyright 2003, Gaussian, Inc.),
 the Gaussian(R) 98 system (copyright 1998, Gaussian, Inc.),
 the Gaussian(R) 94 system (copyright 1995, Gaussian, Inc.),
 the Gaussian 92(TM) system (copyright 1992, Gaussian, Inc.),
 the Gaussian 90(TM) system (copyright 1990, Gaussian, Inc.),
 the Gaussian 88(TM) system (copyright 1988, Gaussian, Inc.),
 the Gaussian 86(TM) system (copyright 1986, Carnegie Mellon
 University), and the Gaussian 82(TM) system (copyright 1983,
 Carnegie Mellon University). Gaussian is a federally registered
 trademark of Gaussian, Inc.
  
 This software contains proprietary and confidential information,
 including trade secrets, belonging to Gaussian, Inc.
  
 This software is provided under written license and may be
 used, copied, transmitted, or stored only in accord with that
 written license.
  
 The following legend is applicable only to US Government
 contracts under FAR:
  
                    RESTRICTED RIGHTS LEGEND
  
 Use, reproduction and disclosure by the US Government is
 subject to restrictions as set forth in subparagraphs (a)
 and (c) of the Commercial Computer Software - Restricted
 Rights clause in FAR 52.227-19.
  
 Gaussian, Inc.
 340 Quinnipiac St., Bldg. 40, Wallingford CT 06492
  
  
 ---------------------------------------------------------------
 Warning -- This program may not be used in any manner that
 competes with the business of Gaussian, Inc. or will provide
 assistance to any competitor of Gaussian, Inc.  The licensee
 of this program is prohibited from giving any competitor of
 Gaussian, Inc. access to this program.  By using this program,
 the user acknowledges that Gaussian, Inc. is engaged in the
 business of creating and licensing software in the field of
 computational chemistry and represents and warrants to the
 licensee that it is not a competitor of Gaussian, Inc. and that
 it will not use this program in any manner prohibited above.
 ---------------------------------------------------------------
  

 Cite this work as:
 Gaussian 16, Revision A.03,
 M. J. Frisch, G. W. Trucks, H. B. Schlegel, G. E. Scuseria, 
 M. A. Robb, J. R. Cheeseman, G. Scalmani, V. Barone, 
 G. A. Petersson, H. Nakatsuji, X. Li, M. Caricato, A. V. Marenich, 
 J. Bloino, B. G. Janesko, R. Gomperts, B. Mennucci, H. P. Hratchian, 
 J. V. Ortiz, A. F. Izmaylov, J. L. Sonnenberg, D. Williams-Young, 
 F. Ding, F. Lipparini, F. Egidi, J. Goings, B. Peng, A. Petrone, 
 T. Henderson, D. Ranasinghe, V. G. Zakrzewski, J. Gao, N. Rega, 
 G. Zheng, W. Liang, M. Hada, M. Ehara, K. Toyota, R. Fukuda, 
 J. Hasegawa, M. Ishida, T. Nakajima, Y. Honda, O. Kitao, H. Nakai, 
 T. Vreven, K. Throssell, J. A. Montgomery, Jr., J. E. Peralta, 
 F. Ogliaro, M. J. Bearpark, J. J. Heyd, E. N. Brothers, K. N. Kudin, 
 V. N. Staroverov, T. A. Keith, R. Kobayashi, J. Normand, 
 K. Raghavachari, A. P. Rendell, J. C. Burant, S. S. Iyengar, 
 J. Tomasi, M. Cossi, J. M. Millam, M. Klene, C. Adamo, R. Cammi, 
 J. W. Ochterski, R. L. Martin, K. Morokuma, O. Farkas, 
 J. B. Foresman, and D. J. Fox, Gaussian, Inc., Wallingford CT, 2016.
 
 ******************************************
 Gaussian 16:  EM64M-G16RevA.03 25-Dec-2016
                14-Nov-2024 
 ******************************************
 %nprocshared=30
 Will use up to   30 processors via shared memory.
 %mem=30GB
 %chk= 0.chk
 -------------------------------
 # freq opt=tight b3lyp 6-31g(d)
 -------------------------------
 1/7=10,18=20,19=15,26=3,38=1/1,3;
 2/9=110,12=2,17=6,18=5,40=1/2;
 3/5=1,6=6,7=1,11=2,25=1,30=1,71=1,74=-5/1,2,3;
 4//1;
 5/5=2,38=5/2;
 6/7=2,8=2,9=2,10=2,28=1/1;
 7//1,2,3,16;
 1/7=10,18=20,19=15,26=3/3(2);
 2/9=110/2;
 99//99;
 2/9=110/2;
 3/5=1,6=6,7=1,11=2,25=1,30=1,71=1,74=-5/1,2,3;
 4/5=5,16=3,69=1/1;
 5/5=2,38=5/2;
 7//1,2,3,16;
 1/7=10,18=20,19=15,26=3/3(-5);
 2/9=110/2;
 6/7=2,8=2,9=2,10=2,19=2,28=1/1;
 99/9=1/99;
 ---------
 good luck
 ---------
 Symbolic Z-matrix:
 Charge =  0 Multiplicity = 1
 C                    -2.63175   0.58335  -0.37942 
 C                    -1.7278   -0.42166   0.28544 
 O                    -2.19008  -1.37004   0.91688 
 C                    -0.24844  -0.25254   0.16853 
 C                     0.32907   0.80938  -0.53878 
 C                     1.72002   0.92405  -0.61925 
 C                     2.53868  -0.01715   0.00357 
 C                     1.971    -1.07621   0.70895 
 C                     0.58231  -1.1942    0.79163 
 H                    -3.6744    0.30736  -0.19275 
 H                    -2.47006   0.58193  -1.46043 
 H                    -2.46532   1.57886   0.0401 
 H                    -0.27741   1.56033  -1.03585 
 H                     2.16649   1.74943  -1.169 
 H                     3.6203    0.07453  -0.06067 
 H                     2.60722  -1.81148   1.19551 
 H                     0.15017  -2.02593   1.34555 
 

 GradGradGradGradGradGradGradGradGradGradGradGradGradGradGradGradGradGrad
 Berny optimization.
 Initialization pass.
                           ----------------------------
                           !    Initial Parameters    !
                           ! (Angstroms and Degrees)  !
 --------------------------                            --------------------------
 ! Name  Definition              Value          Derivative Info.                !
 --------------------------------------------------------------------------------
 ! R1    R(1,2)                  1.5064         estimate D2E/DX2                !
 ! R2    R(1,10)                 1.0946         estimate D2E/DX2                !
 ! R3    R(1,11)                 1.093          estimate D2E/DX2                !
 ! R4    R(1,12)                 1.093          estimate D2E/DX2                !
 ! R5    R(2,3)                  1.2296         estimate D2E/DX2                !
 ! R6    R(2,4)                  1.4936         estimate D2E/DX2                !
 ! R7    R(4,5)                  1.4005         estimate D2E/DX2                !
 ! R8    R(4,9)                  1.4018         estimate D2E/DX2                !
 ! R9    R(5,6)                  1.398          estimate D2E/DX2                !
 ! R10   R(5,13)                 1.0857         estimate D2E/DX2                !
 ! R11   R(6,7)                  1.3943         estimate D2E/DX2                !
 ! R12   R(6,14)                 1.0876         estimate D2E/DX2                !
 ! R13   R(7,8)                  1.3934         estimate D2E/DX2                !
 ! R14   R(7,15)                 1.0874         estimate D2E/DX2                !
 ! R15   R(8,9)                  1.3961         estimate D2E/DX2                !
 ! R16   R(8,16)                 1.0873         estimate D2E/DX2                !
 ! R17   R(9,17)                 1.0887         estimate D2E/DX2                !
 ! A1    A(2,1,10)             109.1539         estimate D2E/DX2                !
 ! A2    A(2,1,11)             110.2957         estimate D2E/DX2                !
 ! A3    A(2,1,12)             110.2959         estimate D2E/DX2                !
 ! A4    A(10,1,11)            108.0135         estimate D2E/DX2                !
 ! A5    A(10,1,12)            108.0124         estimate D2E/DX2                !
 ! A6    A(11,1,12)            110.9932         estimate D2E/DX2                !
 ! A7    A(1,2,3)              121.0408         estimate D2E/DX2                !
 ! A8    A(1,2,4)              118.9646         estimate D2E/DX2                !
 ! A9    A(3,2,4)              119.9946         estimate D2E/DX2                !
 ! A10   A(2,4,5)              122.2636         estimate D2E/DX2                !
 ! A11   A(2,4,9)              118.4323         estimate D2E/DX2                !
 ! A12   A(5,4,9)              119.3041         estimate D2E/DX2                !
 ! A13   A(4,5,6)              120.1021         estimate D2E/DX2                !
 ! A14   A(4,5,13)             121.6884         estimate D2E/DX2                !
 ! A15   A(6,5,13)             118.2094         estimate D2E/DX2                !
 ! A16   A(5,6,7)              120.2068         estimate D2E/DX2                !
 ! A17   A(5,6,14)             119.9871         estimate D2E/DX2                !
 ! A18   A(7,6,14)             119.8061         estimate D2E/DX2                !
 ! A19   A(6,7,8)              120.0011         estimate D2E/DX2                !
 ! A20   A(6,7,15)             120.0489         estimate D2E/DX2                !
 ! A21   A(8,7,15)             119.95           estimate D2E/DX2                !
 ! A22   A(7,8,9)              119.9641         estimate D2E/DX2                !
 ! A23   A(7,8,16)             120.1432         estimate D2E/DX2                !
 ! A24   A(9,8,16)             119.8927         estimate D2E/DX2                !
 ! A25   A(4,9,8)              120.4217         estimate D2E/DX2                !
 ! A26   A(4,9,17)             120.2712         estimate D2E/DX2                !
 ! A27   A(8,9,17)             119.307          estimate D2E/DX2                !
 ! D1    D(10,1,2,3)             0.0053         estimate D2E/DX2                !
 ! D2    D(10,1,2,4)          -179.9949         estimate D2E/DX2                !
 ! D3    D(11,1,2,3)          -118.5161         estimate D2E/DX2                !
 ! D4    D(11,1,2,4)            61.4837         estimate D2E/DX2                !
 ! D5    D(12,1,2,3)           118.5255         estimate D2E/DX2                !
 ! D6    D(12,1,2,4)           -61.4747         estimate D2E/DX2                !
 ! D7    D(1,2,4,5)             -0.0037         estimate D2E/DX2                !
 ! D8    D(1,2,4,9)            179.9966         estimate D2E/DX2                !
 ! D9    D(3,2,4,5)            179.9961         estimate D2E/DX2                !
 ! D10   D(3,2,4,9)             -0.0036         estimate D2E/DX2                !
 ! D11   D(2,4,5,6)           -179.9999         estimate D2E/DX2                !
 ! D12   D(2,4,5,13)             0.0006         estimate D2E/DX2                !
 ! D13   D(9,4,5,6)             -0.0002         estimate D2E/DX2                !
 ! D14   D(9,4,5,13)          -179.9997         estimate D2E/DX2                !
 ! D15   D(2,4,9,8)            179.9993         estimate D2E/DX2                !
 ! D16   D(2,4,9,17)             0.0            estimate D2E/DX2                !
 ! D17   D(5,4,9,8)             -0.0004         estimate D2E/DX2                !
 ! D18   D(5,4,9,17)          -179.9997         estimate D2E/DX2                !
 ! D19   D(4,5,6,7)              0.0006         estimate D2E/DX2                !
 ! D20   D(4,5,6,14)          -179.9998         estimate D2E/DX2                !
 ! D21   D(13,5,6,7)          -179.9998         estimate D2E/DX2                !
 ! D22   D(13,5,6,14)           -0.0003         estimate D2E/DX2                !
 ! D23   D(5,6,7,8)             -0.0005         estimate D2E/DX2                !
 ! D24   D(5,6,7,15)           179.9998         estimate D2E/DX2                !
 ! D25   D(14,6,7,8)           180.0            estimate D2E/DX2                !
 ! D26   D(14,6,7,15)            0.0002         estimate D2E/DX2                !
 ! D27   D(6,7,8,9)             -0.0001         estimate D2E/DX2                !
 ! D28   D(6,7,8,16)          -179.9998         estimate D2E/DX2                !
 ! D29   D(15,7,8,9)           179.9996         estimate D2E/DX2                !
 ! D30   D(15,7,8,16)           -0.0001         estimate D2E/DX2                !
 ! D31   D(7,8,9,4)              0.0006         estimate D2E/DX2                !
 ! D32   D(7,8,9,17)           179.9999         estimate D2E/DX2                !
 ! D33   D(16,8,9,4)          -179.9997         estimate D2E/DX2                !
 ! D34   D(16,8,9,17)           -0.0004         estimate D2E/DX2                !
 --------------------------------------------------------------------------------
 Trust Radius=3.00D-01 FncErr=1.00D-07 GrdErr=1.00D-06 EigMax=2.50D+02 EigMin=1.00D-04
 Number of steps in this run=     88 maximum allowed number of steps=    102.
 GradGradGradGradGradGradGradGradGradGradGradGradGradGradGradGradGradGrad

                          Input orientation:                          
 ---------------------------------------------------------------------
 Center     Atomic      Atomic             Coordinates (Angstroms)
 Number     Number       Type             X           Y           Z
 ---------------------------------------------------------------------
      1          6           0       -2.631748    0.583353   -0.379421
      2          6           0       -1.727804   -0.421659    0.285439
      3          8           0       -2.190076   -1.370040    0.916882
      4          6           0       -0.248440   -0.252536    0.168532
      5          6           0        0.329073    0.809378   -0.538784
      6          6           0        1.720020    0.924054   -0.619247
      7          6           0        2.538679   -0.017152    0.003566
      8          6           0        1.971003   -1.076210    0.708950
      9          6           0        0.582307   -1.194203    0.791625
     10          1           0       -3.674395    0.307359   -0.192753
     11          1           0       -2.470056    0.581926   -1.460430
     12          1           0       -2.465324    1.578858    0.040102
     13          1           0       -0.277413    1.560330   -1.035849
     14          1           0        2.166492    1.749426   -1.168997
     15          1           0        3.620299    0.074528   -0.060673
     16          1           0        2.607215   -1.811480    1.195505
     17          1           0        0.150168   -2.025931    1.345552
 ---------------------------------------------------------------------
                    Distance matrix (angstroms):
                    1          2          3          4          5
     1  C    0.000000
     2  C    1.506387   0.000000
     3  O    2.385628   1.229570   0.000000
     4  C    2.584399   1.493582   2.361947   0.000000
     5  C    2.973709   2.534865   3.635236   1.400528   0.000000
     6  C    4.371668   3.810104   4.786586   2.424829   1.397984
     7  C    5.219253   4.294875   5.002557   2.801901   2.420672
     8  C    5.012386   3.780076   4.176619   2.428254   2.794319
     9  C    3.855023   2.487903   2.780776   1.401828   2.418357
    10  H    1.094591   2.132921   2.499632   3.490154   4.049632
    11  H    1.093036   2.146201   3.088717   2.878441   2.955721
    12  H    1.093036   2.146205   3.088771   2.878380   2.955649
    13  H    2.632162   2.788856   4.007307   2.176662   1.085738
    14  H    5.000626   4.689833   5.749926   3.410093   2.158001
    15  H    6.280812   5.382212   6.066535   3.889299   3.405989
    16  H    5.971796   4.642436   4.825609   3.411707   3.881570
    17  H    4.186042   2.687807   2.467933   2.165455   3.409062
                    6          7          8          9         10
     6  C    0.000000
     7  C    1.394262   0.000000
     8  C    2.414157   1.393351   0.000000
     9  C    2.787824   2.415342   1.396150   0.000000
    10  H    5.446276   6.224640   5.881994   4.619870   0.000000
    11  H    4.287351   5.252581   5.213313   4.188473   1.769979
    12  H    4.287262   5.252488   5.213228   4.188402   1.769967
    13  H    2.137321   3.391048   3.879567   3.415587   3.717558
    14  H    1.087567   2.152725   3.398400   3.875388   6.094963
    15  H    2.155170   1.087398   2.153299   3.400807   7.299604
    16  H    3.400527   2.155233   1.087255   2.155088   6.773135
    17  H    3.876504   3.397220   2.150040   1.088738   4.736867
                   11         12         13         14         15
    11  H    0.000000
    12  H    1.801525   0.000000
    13  H    2.438284   2.438231   0.000000
    14  H    4.790153   4.790066   2.454823   0.000000
    15  H    6.269705   6.269607   4.283776   2.479359   0.000000
    16  H    6.209756   6.209670   4.966802   4.297110   2.482206
    17  H    4.641123   4.641067   4.326103   4.964055   4.293158
                   16         17
    16  H    0.000000
    17  H    2.470948   0.000000
 Stoichiometry    C8H8O
 Framework group  C1[X(C8H8O)]
 Deg. of freedom    45
 Full point group                 C1      NOp   1
 Largest Abelian subgroup         C1      NOp   1
 Largest concise Abelian subgroup C1      NOp   1
                         Standard orientation:                         
 ---------------------------------------------------------------------
 Center     Atomic      Atomic             Coordinates (Angstroms)
 Number     Number       Type             X           Y           Z
 ---------------------------------------------------------------------
      1          6           0       -2.547092    1.047717    0.000043
      2          6           0       -1.696231   -0.195358   -0.000006
      3          8           0       -2.207459   -1.313611   -0.000055
      4          6           0       -0.209342   -0.054119    0.000001
      5          6           0        0.422939    1.195561   -0.000025
      6          6           0        1.818654    1.275178   -0.000019
      7          6           0        2.587623    0.112141   -0.000001
      8          6           0        1.965319   -1.134521    0.000022
      9          6           0        0.571680   -1.218218    0.000029
     10          1           0       -3.603206    0.760046    0.000122
     11          1           0       -2.357364    1.637063   -0.900735
     12          1           0       -2.357251    1.637075    0.900790
     13          1           0       -0.143941    2.121560   -0.000043
     14          1           0        2.307696    2.246588   -0.000037
     15          1           0        3.673081    0.177060   -0.000000
     16          1           0        2.562716   -2.042948    0.000039
     17          1           0        0.096628   -2.197848    0.000045
 ---------------------------------------------------------------------
 Rotational constants (GHZ):           3.6848275           1.2171431           0.9203806
 Standard basis: 6-31G(d) (6D, 7F)
 There are   151 symmetry adapted cartesian basis functions of A   symmetry.
 There are   151 symmetry adapted basis functions of A   symmetry.
   151 basis functions,   284 primitive gaussians,   151 cartesian basis functions
    32 alpha electrons       32 beta electrons
       nuclear repulsion energy       400.9897969010 Hartrees.
 NAtoms=   17 NActive=   17 NUniq=   17 SFac= 1.00D+00 NAtFMM=   60 NAOKFM=F Big=F
 Integral buffers will be    131072 words long.
 Raffenetti 2 integral format.
 Two-electron integral symmetry is turned on.
 One-electron integrals computed using PRISM.
 NBasis=   151 RedAO= T EigKep=  4.71D-04  NBF=   151
 NBsUse=   151 1.00D-06 EigRej= -1.00D+00 NBFU=   151
 ExpMin= 1.61D-01 ExpMax= 5.48D+03 ExpMxC= 8.25D+02 IAcc=3 IRadAn=         5 AccDes= 0.00D+00
 Harris functional with IExCor=  402 and IRadAn=       5 diagonalized for initial guess.
 HarFok:  IExCor=  402 AccDes= 0.00D+00 IRadAn=         5 IDoV= 1 UseB2=F ITyADJ=14
 ICtDFT=  3500011 ScaDFX=  1.000000  1.000000  1.000000  1.000000
 FoFCou: FMM=F IPFlag=           0 FMFlag=      100000 FMFlg1=           0
         NFxFlg=           0 DoJE=T BraDBF=F KetDBF=T FulRan=T
         wScrn=  0.000000 ICntrl=       500 IOpCl=  0 I1Cent=   200000004 NGrid=           0
         NMat0=    1 NMatS0=      1 NMatT0=    0 NMatD0=    1 NMtDS0=    0 NMtDT0=    0
 Petite list used in FoFCou.
 Requested convergence on RMS density matrix=1.00D-08 within 128 cycles.
 Requested convergence on MAX density matrix=1.00D-06.
 Requested convergence on             energy=1.00D-06.
 No special actions if energy rises.
 Integral accuracy reduced to 1.0D-05 until final iterations.
 Initial convergence to 1.0D-05 achieved.  Increase integral accuracy.
 SCF Done:  E(RB3LYP) =  -384.895078168     A.U. after   15 cycles
            NFock= 15  Conv=0.35D-08     -V/T= 2.0096

 **********************************************************************

            Population analysis using the SCF density.

 **********************************************************************

 Orbital symmetries:
       Occupied  (A) (A) (A) (A) (A) (A) (A) (A) (A) (A) (A) (A)
                 (A) (A) (A) (A) (A) (A) (A) (A) (A) (A) (A) (A)
                 (A) (A) (A) (A) (A) (A) (A) (A)
       Virtual   (A) (A) (A) (A) (A) (A) (A) (A) (A) (A) (A) (A)
                 (A) (A) (A) (A) (A) (A) (A) (A) (A) (A) (A) (A)
                 (A) (A) (A) (A) (A) (A) (A) (A) (A) (A) (A) (A)
                 (A) (A) (A) (A) (A) (A) (A) (A) (A) (A) (A) (A)
                 (A) (A) (A) (A) (A) (A) (A) (A) (A) (A) (A) (A)
                 (A) (A) (A) (A) (A) (A) (A) (A) (A) (A) (A) (A)
                 (A) (A) (A) (A) (A) (A) (A) (A) (A) (A) (A) (A)
                 (A) (A) (A) (A) (A) (A) (A) (A) (A) (A) (A) (A)
                 (A) (A) (A) (A) (A) (A) (A) (A) (A) (A) (A) (A)
                 (A) (A) (A) (A) (A) (A) (A) (A) (A) (A) (A)
 The electronic state is 1-A.
 Alpha  occ. eigenvalues --  -19.13200 -10.27363 -10.20447 -10.20250 -10.20119
 Alpha  occ. eigenvalues --  -10.20025 -10.19805 -10.19727 -10.18888  -1.02795
 Alpha  occ. eigenvalues --   -0.86279  -0.77557  -0.75310  -0.73300  -0.63055
 Alpha  occ. eigenvalues --   -0.61045  -0.55387  -0.51157  -0.46643  -0.45811
 Alpha  occ. eigenvalues --   -0.44904  -0.44815  -0.42849  -0.41106  -0.38909
 Alpha  occ. eigenvalues --   -0.38027  -0.35842  -0.34993  -0.34904  -0.26120
 Alpha  occ. eigenvalues --   -0.25699  -0.24570
 Alpha virt. eigenvalues --   -0.05422  -0.00924   0.04153   0.08540   0.11173
 Alpha virt. eigenvalues --    0.14143   0.15002   0.15724   0.15983   0.17959
 Alpha virt. eigenvalues --    0.18486   0.19314   0.22626   0.27073   0.28988
 Alpha virt. eigenvalues --    0.30300   0.31584   0.34917   0.37010   0.47877
 Alpha virt. eigenvalues --    0.51051   0.51831   0.53026   0.54319   0.55518
 Alpha virt. eigenvalues --    0.56492   0.58503   0.58569   0.59942   0.60042
 Alpha virt. eigenvalues --    0.60747   0.61537   0.64737   0.66661   0.66927
 Alpha virt. eigenvalues --    0.69453   0.72949   0.75440   0.77010   0.81790
 Alpha virt. eigenvalues --    0.82404   0.82830   0.84322   0.85734   0.87686
 Alpha virt. eigenvalues --    0.89410   0.90345   0.92885   0.94132   0.95835
 Alpha virt. eigenvalues --    0.98463   1.02702   1.02851   1.06207   1.08819
 Alpha virt. eigenvalues --    1.13038   1.15949   1.18500   1.24540   1.28562
 Alpha virt. eigenvalues --    1.31066   1.32342   1.41885   1.42454   1.42833
 Alpha virt. eigenvalues --    1.45204   1.45806   1.47843   1.48358   1.50353
 Alpha virt. eigenvalues --    1.65999   1.68954   1.76352   1.77054   1.80226
 Alpha virt. eigenvalues --    1.83693   1.86332   1.88347   1.90470   1.93404
 Alpha virt. eigenvalues --    1.96978   1.99513   2.02960   2.04654   2.06600
 Alpha virt. eigenvalues --    2.13494   2.14099   2.15070   2.17961   2.24740
 Alpha virt. eigenvalues --    2.27174   2.28042   2.28632   2.29675   2.39069
 Alpha virt. eigenvalues --    2.43864   2.50997   2.58374   2.58437   2.59875
 Alpha virt. eigenvalues --    2.65510   2.66804   2.74023   2.74463   2.77334
 Alpha virt. eigenvalues --    2.86981   2.96984   2.97900   3.15656   3.41480
 Alpha virt. eigenvalues --    3.96603   4.07677   4.10329   4.12601   4.22539
 Alpha virt. eigenvalues --    4.31045   4.33620   4.49214   4.70896
          Condensed to atoms (all electrons):
               1          2          3          4          5          6
     1  C    5.391480   0.315025  -0.093077  -0.127245  -0.010753  -0.000133
     2  C    0.315025   4.563387   0.579303   0.274944  -0.042274   0.004485
     3  O   -0.093077   0.579303   8.030737  -0.091305   0.004519  -0.000065
     4  C   -0.127245   0.274944  -0.091305   5.011697   0.500288  -0.012166
     5  C   -0.010753  -0.042274   0.004519   0.500288   5.043936   0.519028
     6  C   -0.000133   0.004485  -0.000065  -0.012166   0.519028   4.864696
     7  C   -0.000018   0.000091  -0.000021  -0.035926  -0.035388   0.550361
     8  C   -0.000102   0.007028   0.001209  -0.021291  -0.040039  -0.027394
     9  C    0.011267  -0.029178   0.000865   0.485512  -0.083294  -0.041039
    10  H    0.349283  -0.019635   0.006133   0.005456   0.000142   0.000000
    11  H    0.348298  -0.017925   0.001483   0.002078   0.000573   0.000094
    12  H    0.348296  -0.017927   0.001484   0.002080   0.000573   0.000094
    13  H    0.008058  -0.012339   0.000054  -0.038227   0.353871  -0.045528
    14  H    0.000009  -0.000112   0.000000   0.003498  -0.039386   0.358794
    15  H   -0.000000   0.000009   0.000000   0.000646   0.004848  -0.042687
    16  H    0.000002  -0.000137   0.000004   0.003461   0.000791   0.004654
    17  H    0.000685  -0.009222   0.015724  -0.041538   0.005590   0.000301
               7          8          9         10         11         12
     1  C   -0.000018  -0.000102   0.011267   0.349283   0.348298   0.348296
     2  C    0.000091   0.007028  -0.029178  -0.019635  -0.017925  -0.017927
     3  O   -0.000021   0.001209   0.000865   0.006133   0.001483   0.001484
     4  C   -0.035926  -0.021291   0.485512   0.005456   0.002078   0.002080
     5  C   -0.035388  -0.040039  -0.083294   0.000142   0.000573   0.000573
     6  C    0.550361  -0.027394  -0.041039   0.000000   0.000094   0.000094
     7  C    4.849583   0.536825  -0.030345   0.000000   0.000002   0.000002
     8  C    0.536825   4.910432   0.485137   0.000001  -0.000006  -0.000006
     9  C   -0.030345   0.485137   5.032670  -0.000138  -0.000368  -0.000368
    10  H    0.000000   0.000001  -0.000138   0.522846  -0.022721  -0.022723
    11  H    0.000002  -0.000006  -0.000368  -0.022721   0.539776  -0.024792
    12  H    0.000002  -0.000006  -0.000368  -0.022723  -0.024792   0.539784
    13  H    0.004761   0.000320   0.005496  -0.000079   0.001148   0.001149
    14  H   -0.042714   0.004667   0.000747  -0.000000  -0.000005  -0.000005
    15  H    0.359600  -0.042959   0.004470  -0.000000   0.000000   0.000000
    16  H   -0.043708   0.360721  -0.039744  -0.000000   0.000000   0.000000
    17  H    0.004429  -0.043879   0.356347  -0.000015  -0.000020  -0.000020
              13         14         15         16         17
     1  C    0.008058   0.000009  -0.000000   0.000002   0.000685
     2  C   -0.012339  -0.000112   0.000009  -0.000137  -0.009222
     3  O    0.000054   0.000000   0.000000   0.000004   0.015724
     4  C   -0.038227   0.003498   0.000646   0.003461  -0.041538
     5  C    0.353871  -0.039386   0.004848   0.000791   0.005590
     6  C   -0.045528   0.358794  -0.042687   0.004654   0.000301
     7  C    0.004761  -0.042714   0.359600  -0.043708   0.004429
     8  C    0.000320   0.004667  -0.042959   0.360721  -0.043879
     9  C    0.005496   0.000747   0.004470  -0.039744   0.356347
    10  H   -0.000079  -0.000000  -0.000000  -0.000000  -0.000015
    11  H    0.001148  -0.000005   0.000000   0.000000  -0.000020
    12  H    0.001149  -0.000005   0.000000   0.000000  -0.000020
    13  H    0.590153  -0.005403  -0.000180   0.000016  -0.000141
    14  H   -0.005403   0.590488  -0.005571  -0.000179   0.000016
    15  H   -0.000180  -0.005571   0.590320  -0.005487  -0.000164
    16  H    0.000016  -0.000179  -0.005487   0.586271  -0.004791
    17  H   -0.000141   0.000016  -0.000164  -0.004791   0.551851
 Mulliken charges:
               1
     1  C   -0.541075
     2  C    0.404477
     3  O   -0.457048
     4  C    0.078037
     5  C   -0.183024
     6  C   -0.133494
     7  C   -0.117534
     8  C   -0.130663
     9  C   -0.158038
    10  H    0.181449
    11  H    0.172382
    12  H    0.172379
    13  H    0.136871
    14  H    0.135153
    15  H    0.137153
    16  H    0.138127
    17  H    0.164847
 Sum of Mulliken charges =  -0.00000
 Mulliken charges with hydrogens summed into heavy atoms:
               1
     1  C   -0.014865
     2  C    0.404477
     3  O   -0.457048
     4  C    0.078037
     5  C   -0.046153
     6  C    0.001659
     7  C    0.019619
     8  C    0.007464
     9  C    0.006809
 Electronic spatial extent (au):  <R**2>=           1232.5310
 Charge=             -0.0000 electrons
 Dipole moment (field-independent basis, Debye):
    X=              1.8640    Y=              2.3792    Z=              0.0001  Tot=              3.0224
 Quadrupole moment (field-independent basis, Debye-Ang):
   XX=            -50.3442   YY=            -50.1184   ZZ=            -53.9680
   XY=             -6.3309   XZ=             -0.0002   YZ=             -0.0003
 Traceless Quadrupole moment (field-independent basis, Debye-Ang):
   XX=              1.1327   YY=              1.3584   ZZ=             -2.4911
   XY=             -6.3309   XZ=             -0.0002   YZ=             -0.0003
 Octapole moment (field-independent basis, Debye-Ang**2):
  XXX=             13.6636  YYY=             -0.3717  ZZZ=             -0.0003  XYY=              9.0039
  XXY=             12.6363  XXZ=              0.0007  XZZ=             -9.0923  YZZ=             -1.0813
  YYZ=              0.0001  XYZ=              0.0003
 Hexadecapole moment (field-independent basis, Debye-Ang**3):
 XXXX=          -1088.4133 YYYY=           -403.1532 ZZZZ=            -59.9998 XXXY=            -23.3690
 XXXZ=             -0.0019 YYYX=             -0.7741 YYYZ=             -0.0011 ZZZX=              0.0007
 ZZZY=              0.0004 XXYY=           -265.0094 XXZZ=           -207.8370 YYZZ=            -83.2152
 XXYZ=             -0.0014 YYXZ=             -0.0000 ZZXY=              1.4467
 N-N= 4.009897969010D+02 E-N=-1.696025525835D+03  KE= 3.812350645368D+02
 Calling FoFJK, ICntrl=      2127 FMM=F ISym2X=0 I1Cent= 0 IOpClX= 0 NMat=1 NMatS=1 NMatT=0.
 ***** Axes restored to original set *****
 -------------------------------------------------------------------
 Center     Atomic                   Forces (Hartrees/Bohr)
 Number     Number              X              Y              Z
 -------------------------------------------------------------------
      1        6          -0.009615674   -0.002550220    0.001727244
      2        6          -0.001663377   -0.014884447    0.009892828
      3        8           0.001839605    0.008054548   -0.005355821
      4        6          -0.001980145    0.000256778   -0.000164572
      5        6           0.007874727    0.002336981   -0.001575335
      6        6          -0.001703976    0.001459886   -0.000965851
      7        6           0.002862819    0.001490872   -0.000998882
      8        6          -0.004830144   -0.002122549    0.001425854
      9        6           0.008015494   -0.004063311    0.002673370
     10        1           0.001935008   -0.001048692    0.000688676
     11        1           0.001761670    0.005106221   -0.001647912
     12        1           0.001755165    0.003492832   -0.004076873
     13        1          -0.001967433   -0.001358753    0.000908540
     14        1          -0.000787795   -0.000261137    0.000175939
     15        1          -0.000279192    0.000279170   -0.000184714
     16        1          -0.000424394    0.000223187   -0.000146973
     17        1          -0.002792357    0.003588634   -0.002375518
 -------------------------------------------------------------------
 Cartesian Forces:  Max     0.014884447 RMS     0.004042266

 GradGradGradGradGradGradGradGradGradGradGradGradGradGradGradGradGradGrad
 Berny optimization.
 FormGI is forming the generalized inverse of G from B-inverse, IUseBI=4.
 Internal  Forces:  Max     0.009654911 RMS     0.002167612
 Search for a local minimum.
 Step number   1 out of a maximum of   88
 All quantities printed in internal units (Hartrees-Bohrs-Radians)
 Mixed Optimization -- RFO/linear search
 Second derivative matrix not updated -- first step.
 ITU=  0
     Eigenvalues ---    0.00681   0.00748   0.00851   0.01697   0.02080
     Eigenvalues ---    0.02097   0.02104   0.02124   0.02139   0.02157
     Eigenvalues ---    0.02161   0.02171   0.07249   0.07545   0.16000
     Eigenvalues ---    0.16000   0.16000   0.16000   0.16000   0.16000
     Eigenvalues ---    0.16000   0.16000   0.22000   0.22000   0.23479
     Eigenvalues ---    0.25000   0.25000   0.25000   0.31716   0.33060
     Eigenvalues ---    0.34287   0.34464   0.34464   0.34959   0.35095
     Eigenvalues ---    0.35115   0.35132   0.35310   0.41749   0.41948
     Eigenvalues ---    0.45554   0.46102   0.46132   0.46585   0.91266
 RFO step:  Lambda=-1.46287031D-03 EMin= 6.81455804D-03
 Linear search not attempted -- first point.
 Iteration  1 RMS(Cart)=  0.01166371 RMS(Int)=  0.00014562
 Iteration  2 RMS(Cart)=  0.00015815 RMS(Int)=  0.00001155
 Iteration  3 RMS(Cart)=  0.00000002 RMS(Int)=  0.00001155
 Variable       Old X    -DE/DX   Delta X   Delta X   Delta X     New X
                                 (Linear)    (Quad)   (Total)
    R1        2.84666   0.00730   0.00000   0.02290   0.02290   2.86956
    R2        2.06848  -0.00146   0.00000  -0.00424  -0.00424   2.06423
    R3        2.06554   0.00188   0.00000   0.00544   0.00544   2.07098
    R4        2.06554   0.00188   0.00000   0.00544   0.00544   2.07098
    R5        2.32355  -0.00965   0.00000  -0.01056  -0.01056   2.31299
    R6        2.82246   0.00425   0.00000   0.01281   0.01281   2.83527
    R7        2.64661   0.00262   0.00000   0.00556   0.00556   2.65217
    R8        2.64907   0.00070   0.00000   0.00134   0.00134   2.65041
    R9        2.64181  -0.00211   0.00000  -0.00456  -0.00456   2.63725
   R10        2.05175  -0.00026   0.00000  -0.00072  -0.00072   2.05102
   R11        2.63477   0.00140   0.00000   0.00318   0.00318   2.63796
   R12        2.05520  -0.00061   0.00000  -0.00173  -0.00173   2.05347
   R13        2.63305   0.00418   0.00000   0.00908   0.00908   2.64213
   R14        2.05488  -0.00024   0.00000  -0.00069  -0.00069   2.05419
   R15        2.63834  -0.00289   0.00000  -0.00625  -0.00625   2.63209
   R16        2.05461  -0.00046   0.00000  -0.00132  -0.00132   2.05330
   R17        2.05742  -0.00284   0.00000  -0.00809  -0.00809   2.04932
    A1        1.90510  -0.00245   0.00000  -0.00691  -0.00695   1.89814
    A2        1.92502   0.00284   0.00000   0.01334   0.01334   1.93837
    A3        1.92503   0.00284   0.00000   0.01335   0.01335   1.93837
    A4        1.88519   0.00124   0.00000   0.01595   0.01591   1.90110
    A5        1.88517   0.00124   0.00000   0.01597   0.01593   1.90111
    A6        1.93720  -0.00577   0.00000  -0.05112  -0.05108   1.88612
    A7        2.11256  -0.00222   0.00000  -0.00881  -0.00881   2.10375
    A8        2.07632  -0.00006   0.00000  -0.00023  -0.00023   2.07609
    A9        2.09430   0.00227   0.00000   0.00904   0.00904   2.10334
   A10        2.13390   0.00170   0.00000   0.00716   0.00716   2.14106
   A11        2.06703  -0.00057   0.00000  -0.00187  -0.00188   2.06516
   A12        2.08225  -0.00113   0.00000  -0.00529  -0.00528   2.07696
   A13        2.09618   0.00161   0.00000   0.00686   0.00686   2.10304
   A14        2.12386  -0.00342   0.00000  -0.01960  -0.01960   2.10427
   A15        2.06314   0.00180   0.00000   0.01274   0.01274   2.07588
   A16        2.09800  -0.00086   0.00000  -0.00354  -0.00354   2.09446
   A17        2.09417  -0.00017   0.00000  -0.00198  -0.00198   2.09219
   A18        2.09101   0.00104   0.00000   0.00552   0.00552   2.09653
   A19        2.09441  -0.00053   0.00000  -0.00174  -0.00174   2.09267
   A20        2.09525  -0.00011   0.00000  -0.00143  -0.00143   2.09382
   A21        2.09352   0.00064   0.00000   0.00317   0.00317   2.09669
   A22        2.09377   0.00034   0.00000   0.00171   0.00171   2.09547
   A23        2.09689   0.00003   0.00000   0.00034   0.00035   2.09724
   A24        2.09252  -0.00036   0.00000  -0.00205  -0.00205   2.09047
   A25        2.10176   0.00057   0.00000   0.00200   0.00200   2.10376
   A26        2.09913  -0.00468   0.00000  -0.02822  -0.02822   2.07091
   A27        2.08230   0.00411   0.00000   0.02621   0.02621   2.10851
    D1        0.00009  -0.00000   0.00000  -0.00003  -0.00003   0.00007
    D2       -3.14150  -0.00000   0.00000  -0.00002  -0.00002  -3.14153
    D3       -2.06850  -0.00172   0.00000  -0.02326  -0.02329  -2.09179
    D4        1.07309  -0.00172   0.00000  -0.02326  -0.02329   1.04981
    D5        2.06866   0.00172   0.00000   0.02323   0.02326   2.09192
    D6       -1.07294   0.00172   0.00000   0.02323   0.02327  -1.04967
    D7       -0.00007   0.00000   0.00000   0.00002   0.00002  -0.00004
    D8        3.14153   0.00000   0.00000   0.00002   0.00002   3.14156
    D9        3.14152   0.00000   0.00000   0.00003   0.00003   3.14155
   D10       -0.00006   0.00000   0.00000   0.00003   0.00003  -0.00004
   D11       -3.14159   0.00000   0.00000   0.00001   0.00001  -3.14158
   D12        0.00001  -0.00000   0.00000  -0.00001  -0.00001   0.00000
   D13       -0.00000   0.00000   0.00000   0.00001   0.00001   0.00000
   D14       -3.14159  -0.00000   0.00000  -0.00001  -0.00001   3.14159
   D15        3.14158   0.00000   0.00000   0.00001   0.00001   3.14159
   D16       -0.00000  -0.00000   0.00000  -0.00000  -0.00000  -0.00000
   D17       -0.00001   0.00000   0.00000   0.00001   0.00001   0.00000
   D18       -3.14159  -0.00000   0.00000  -0.00000  -0.00000  -3.14159
   D19        0.00001  -0.00000   0.00000  -0.00002  -0.00002  -0.00001
   D20       -3.14159  -0.00000   0.00000  -0.00001  -0.00001   3.14159
   D21       -3.14159  -0.00000   0.00000  -0.00000  -0.00000   3.14159
   D22       -0.00001   0.00000   0.00000   0.00001   0.00001   0.00000
   D23       -0.00001   0.00000   0.00000   0.00001   0.00001   0.00000
   D24        3.14159   0.00000   0.00000   0.00001   0.00001  -3.14159
   D25        3.14159   0.00000   0.00000   0.00000   0.00000  -3.14159
   D26        0.00000  -0.00000   0.00000  -0.00000  -0.00000   0.00000
   D27       -0.00000   0.00000   0.00000   0.00000   0.00000   0.00000
   D28       -3.14159  -0.00000   0.00000  -0.00000  -0.00000   3.14159
   D29        3.14159   0.00000   0.00000   0.00001   0.00001  -3.14159
   D30       -0.00000   0.00000   0.00000   0.00000   0.00000   0.00000
   D31        0.00001  -0.00000   0.00000  -0.00002  -0.00002  -0.00001
   D32        3.14159  -0.00000   0.00000  -0.00000  -0.00000   3.14159
   D33       -3.14159  -0.00000   0.00000  -0.00001  -0.00001   3.14159
   D34       -0.00001   0.00000   0.00000   0.00001   0.00001  -0.00000
         Item               Value     Threshold  Converged?
 Maximum Force            0.009655     0.000015     NO 
 RMS     Force            0.002168     0.000010     NO 
 Maximum Displacement     0.045577     0.000060     NO 
 RMS     Displacement     0.011707     0.000040     NO 
 Predicted change in Energy=-7.386253D-04
 GradGradGradGradGradGradGradGradGradGradGradGradGradGradGradGradGradGrad

                          Input orientation:                          
 ---------------------------------------------------------------------
 Center     Atomic      Atomic             Coordinates (Angstroms)
 Number     Number       Type             X           Y           Z
 ---------------------------------------------------------------------
      1          6           0       -2.644056    0.579752   -0.376995
      2          6           0       -1.728276   -0.430479    0.291315
      3          8           0       -2.194168   -1.372582    0.918622
      4          6           0       -0.243036   -0.255650    0.170591
      5          6           0        0.339737    0.806961   -0.537195
      6          6           0        1.727758    0.925701   -0.620365
      7          6           0        2.547575   -0.016541    0.003131
      8          6           0        1.975909   -1.078492    0.710447
      9          6           0        0.590521   -1.196338    0.793007
     10          1           0       -3.680940    0.295037   -0.184572
     11          1           0       -2.477783    0.606044   -1.459905
     12          1           0       -2.473138    1.587748    0.017674
     13          1           0       -0.281243    1.549274   -1.028470
     14          1           0        2.168231    1.752477   -1.171030
     15          1           0        3.628654    0.076526   -0.062032
     16          1           0        2.610004   -1.814315    1.197372
     17          1           0        0.134252   -2.015120    1.338403
 ---------------------------------------------------------------------
                    Distance matrix (angstroms):
                    1          2          3          4          5
     1  C    0.000000
     2  C    1.518505   0.000000
     3  O    2.385924   1.223981   0.000000
     4  C    2.600508   1.500359   2.369389   0.000000
     5  C    2.996716   2.548404   3.645612   1.403470   0.000000
     6  C    4.392228   3.822898   4.799176   2.430068   1.395571
     7  C    5.239570   4.305496   5.016084   2.805838   2.417573
     8  C    5.027562   3.783726   4.185615   2.427392   2.790807
     9  C    3.871161   2.493001   2.793086   1.402538   2.417755
    10  H    1.092345   2.136759   2.491683   3.499797   4.068446
    11  H    1.095916   2.168620   3.106894   2.897435   2.971562
    12  H    1.095916   2.168626   3.106942   2.897387   2.971493
    13  H    2.635769   2.784808   3.998461   2.167246   1.085355
    14  H    5.016361   4.699629   5.758747   3.412731   2.153866
    15  H    6.300741   5.392459   6.080038   3.892871   3.402395
    16  H    5.984591   4.642910   4.832483   3.409333   3.877360
    17  H    4.170725   2.660168   2.451654   2.145196   3.394736
                    6          7          8          9         10
     6  C    0.000000
     7  C    1.395947   0.000000
     8  C    2.418559   1.398155   0.000000
     9  C    2.791770   2.417827   1.392841   0.000000
    10  H    5.462753   6.239128   5.889617   4.628741   0.000000
    11  H    4.300417   5.270893   5.232922   4.211732   1.780670
    12  H    4.300340   5.270817   5.232857   4.211684   1.780671
    13  H    2.142773   3.393846   3.876044   3.408245   3.720647
    14  H    1.086650   2.156845   3.404604   3.878418   6.108194
    15  H    2.155514   1.087033   2.159249   3.403165   7.313887
    16  H    3.404440   2.159190   1.086558   2.150283   6.777545
    17  H    3.876140   3.406083   2.159468   1.084455   4.712958
                   11         12         13         14         15
    11  H    0.000000
    12  H    1.773979   0.000000
    13  H    2.429117   2.429054   0.000000
    14  H    4.794080   4.794002   2.462019   0.000000
    15  H    6.286734   6.286654   4.288390   2.484255   0.000000
    16  H    6.229353   6.229290   4.962601   4.304242   2.489785
    17  H    4.639371   4.639339   4.298794   4.962773   4.306629
                   16         17
    16  H    0.000000
    17  H    2.487883   0.000000
 Stoichiometry    C8H8O
 Framework group  C1[X(C8H8O)]
 Deg. of freedom    45
 Full point group                 C1      NOp   1
 Largest Abelian subgroup         C1      NOp   1
 Largest concise Abelian subgroup C1      NOp   1
                         Standard orientation:                         
 ---------------------------------------------------------------------
 Center     Atomic      Atomic             Coordinates (Angstroms)
 Number     Number       Type             X           Y           Z
 ---------------------------------------------------------------------
      1          6           0       -2.560433    1.049105    0.000030
      2          6           0       -1.699425   -0.201704   -0.000004
      3          8           0       -2.215194   -1.311709   -0.000036
      4          6           0       -0.206203   -0.055540    0.000001
      5          6           0        0.432776    1.194033   -0.000013
      6          6           0        1.825873    1.277087   -0.000017
      7          6           0        2.594635    0.111895    0.000001
      8          6           0        1.966788   -1.137364    0.000018
      9          6           0        0.576369   -1.219454    0.000014
     10          1           0       -3.611578    0.751928    0.000087
     11          1           0       -2.364426    1.662152   -0.886979
     12          1           0       -2.364333    1.662179    0.887000
     13          1           0       -0.148004    2.110924   -0.000026
     14          1           0        2.310090    2.249888   -0.000032
     15          1           0        3.679699    0.177282    0.000001
     16          1           0        2.561018   -2.047033    0.000031
     17          1           0        0.076798   -2.181988    0.000024
 ---------------------------------------------------------------------
 Rotational constants (GHZ):           3.6813173           1.2095806           0.9156679
 Standard basis: 6-31G(d) (6D, 7F)
 There are   151 symmetry adapted cartesian basis functions of A   symmetry.
 There are   151 symmetry adapted basis functions of A   symmetry.
   151 basis functions,   284 primitive gaussians,   151 cartesian basis functions
    32 alpha electrons       32 beta electrons
       nuclear repulsion energy       400.3909560383 Hartrees.
 NAtoms=   17 NActive=   17 NUniq=   17 SFac= 1.00D+00 NAtFMM=   60 NAOKFM=F Big=F
 Integral buffers will be    131072 words long.
 Raffenetti 2 integral format.
 Two-electron integral symmetry is turned on.
 One-electron integrals computed using PRISM.
 NBasis=   151 RedAO= T EigKep=  4.70D-04  NBF=   151
 NBsUse=   151 1.00D-06 EigRej= -1.00D+00 NBFU=   151
 Initial guess from the checkpoint file:  "0.chk"
 B after Tr=     0.000000   -0.000000   -0.000000
         Rot=    1.000000    0.000000    0.000000    0.000325 Ang=   0.04 deg.
 ExpMin= 1.61D-01 ExpMax= 5.48D+03 ExpMxC= 8.25D+02 IAcc=2 IRadAn=         4 AccDes= 0.00D+00
 Harris functional with IExCor=  402 and IRadAn=       4 diagonalized for initial guess.
 HarFok:  IExCor=  402 AccDes= 0.00D+00 IRadAn=         4 IDoV= 1 UseB2=F ITyADJ=14
 ICtDFT=  3500011 ScaDFX=  1.000000  1.000000  1.000000  1.000000
 FoFCou: FMM=F IPFlag=           0 FMFlag=      100000 FMFlg1=           0
         NFxFlg=           0 DoJE=T BraDBF=F KetDBF=T FulRan=T
         wScrn=  0.000000 ICntrl=       500 IOpCl=  0 I1Cent=   200000004 NGrid=           0
         NMat0=    1 NMatS0=      1 NMatT0=    0 NMatD0=    1 NMtDS0=    0 NMtDT0=    0
 Petite list used in FoFCou.
 Requested convergence on RMS density matrix=1.00D-08 within 128 cycles.
 Requested convergence on MAX density matrix=1.00D-06.
 Requested convergence on             energy=1.00D-06.
 No special actions if energy rises.
 Integral accuracy reduced to 1.0D-05 until final iterations.
 Initial convergence to 1.0D-05 achieved.  Increase integral accuracy.
 SCF Done:  E(RB3LYP) =  -384.895938383     A.U. after   11 cycles
            NFock= 11  Conv=0.63D-08     -V/T= 2.0097
 Calling FoFJK, ICntrl=      2127 FMM=F ISym2X=0 I1Cent= 0 IOpClX= 0 NMat=1 NMatS=1 NMatT=0.
 ***** Axes restored to original set *****
 -------------------------------------------------------------------
 Center     Atomic                   Forces (Hartrees/Bohr)
 Number     Number              X              Y              Z
 -------------------------------------------------------------------
      1        6          -0.002261935   -0.000700750    0.000473173
      2        6          -0.000173301   -0.003475085    0.002309485
      3        8           0.001006582    0.002584667   -0.001719975
      4        6          -0.000783092    0.001081750   -0.000716713
      5        6           0.001133025    0.000341918   -0.000230839
      6        6          -0.000588354   -0.000245714    0.000165409
      7        6           0.000033584   -0.000071149    0.000047084
      8        6          -0.001126667   -0.000027523    0.000021542
      9        6           0.002632705   -0.000624997    0.000407397
     10        1           0.000685063   -0.000302081    0.000198200
     11        1           0.000589679    0.000991911   -0.000242069
     12        1           0.000587856    0.000605450   -0.000823238
     13        1          -0.000681710   -0.000128482    0.000087467
     14        1          -0.000103007   -0.000020979    0.000014269
     15        1          -0.000115521   -0.000096098    0.000064205
     16        1           0.000224042    0.000073278   -0.000049369
     17        1          -0.001058947    0.000013884   -0.000006028
 -------------------------------------------------------------------
 Cartesian Forces:  Max     0.003475085 RMS     0.001009381

 GradGradGradGradGradGradGradGradGradGradGradGradGradGradGradGradGradGrad
 Berny optimization.
 Using GEDIIS/GDIIS optimizer.
 FormGI is forming the generalized inverse of G from B-inverse, IUseBI=4.
 Internal  Forces:  Max     0.003254269 RMS     0.000523919
 Search for a local minimum.
 Step number   2 out of a maximum of   88
 All quantities printed in internal units (Hartrees-Bohrs-Radians)
 Mixed Optimization -- En-DIIS/RFO-DIIS
 Update second derivatives using D2CorX and points    1    2
 DE= -8.60D-04 DEPred=-7.39D-04 R= 1.16D+00
 TightC=F SS=  1.41D+00  RLast= 9.60D-02 DXNew= 5.0454D-01 2.8796D-01
 Trust test= 1.16D+00 RLast= 9.60D-02 DXMaxT set to 3.00D-01
 ITU=  1  0
 Use linear search instead of GDIIS.
     Eigenvalues ---    0.00681   0.00749   0.00851   0.01694   0.02080
     Eigenvalues ---    0.02098   0.02105   0.02124   0.02139   0.02157
     Eigenvalues ---    0.02161   0.02171   0.06667   0.07442   0.14226
     Eigenvalues ---    0.16000   0.16000   0.16000   0.16000   0.16000
     Eigenvalues ---    0.16000   0.16171   0.21995   0.22080   0.23781
     Eigenvalues ---    0.24863   0.25000   0.25044   0.31462   0.33513
     Eigenvalues ---    0.34200   0.34412   0.34464   0.35092   0.35111
     Eigenvalues ---    0.35126   0.35253   0.35552   0.41770   0.41963
     Eigenvalues ---    0.45455   0.45778   0.46341   0.46956   0.88443
 RFO step:  Lambda=-3.87673561D-05 EMin= 6.81455797D-03
 Quartic linear search produced a step of  0.21441.
 Iteration  1 RMS(Cart)=  0.00338770 RMS(Int)=  0.00001332
 Iteration  2 RMS(Cart)=  0.00001355 RMS(Int)=  0.00000250
 Iteration  3 RMS(Cart)=  0.00000000 RMS(Int)=  0.00000250
 Variable       Old X    -DE/DX   Delta X   Delta X   Delta X     New X
                                 (Linear)    (Quad)   (Total)
    R1        2.86956   0.00081   0.00491  -0.00122   0.00368   2.87324
    R2        2.06423  -0.00054  -0.00091  -0.00110  -0.00201   2.06222
    R3        2.07098   0.00035   0.00117   0.00021   0.00138   2.07236
    R4        2.07098   0.00035   0.00117   0.00021   0.00138   2.07236
    R5        2.31299  -0.00325  -0.00226  -0.00234  -0.00460   2.30838
    R6        2.83527  -0.00038   0.00275  -0.00382  -0.00107   2.83420
    R7        2.65217  -0.00036   0.00119  -0.00197  -0.00078   2.65139
    R8        2.65041   0.00079   0.00029   0.00189   0.00218   2.65260
    R9        2.63725  -0.00065  -0.00098  -0.00087  -0.00184   2.63540
   R10        2.05102   0.00026  -0.00016   0.00104   0.00088   2.05191
   R11        2.63796   0.00027   0.00068   0.00007   0.00075   2.63871
   R12        2.05347  -0.00007  -0.00037   0.00010  -0.00027   2.05320
   R13        2.64213  -0.00002   0.00195  -0.00179   0.00016   2.64229
   R14        2.05419  -0.00013  -0.00015  -0.00031  -0.00046   2.05374
   R15        2.63209  -0.00106  -0.00134  -0.00161  -0.00295   2.62914
   R16        2.05330   0.00006  -0.00028   0.00045   0.00017   2.05347
   R17        2.04932   0.00043  -0.00174   0.00303   0.00130   2.05062
    A1        1.89814  -0.00063  -0.00149  -0.00088  -0.00238   1.89576
    A2        1.93837   0.00033   0.00286  -0.00133   0.00152   1.93989
    A3        1.93837   0.00033   0.00286  -0.00133   0.00152   1.93990
    A4        1.90110   0.00051   0.00341   0.00336   0.00676   1.90786
    A5        1.90111   0.00051   0.00342   0.00336   0.00676   1.90787
    A6        1.88612  -0.00104  -0.01095  -0.00295  -0.01390   1.87222
    A7        2.10375  -0.00021  -0.00189   0.00063  -0.00126   2.10249
    A8        2.07609  -0.00016  -0.00005  -0.00071  -0.00076   2.07533
    A9        2.10334   0.00037   0.00194   0.00008   0.00202   2.10536
   A10        2.14106   0.00016   0.00154  -0.00063   0.00091   2.14197
   A11        2.06516  -0.00048  -0.00040  -0.00203  -0.00243   2.06273
   A12        2.07696   0.00031  -0.00113   0.00266   0.00152   2.07849
   A13        2.10304  -0.00034   0.00147  -0.00307  -0.00159   2.10144
   A14        2.10427  -0.00050  -0.00420  -0.00044  -0.00464   2.09963
   A15        2.07588   0.00083   0.00273   0.00350   0.00623   2.08212
   A16        2.09446   0.00008  -0.00076   0.00106   0.00030   2.09476
   A17        2.09219  -0.00012  -0.00042  -0.00047  -0.00089   2.09130
   A18        2.09653   0.00005   0.00118  -0.00059   0.00059   2.09712
   A19        2.09267   0.00022  -0.00037   0.00149   0.00111   2.09378
   A20        2.09382  -0.00001  -0.00031   0.00050   0.00019   2.09402
   A21        2.09669  -0.00022   0.00068  -0.00198  -0.00130   2.09539
   A22        2.09547  -0.00019   0.00037  -0.00140  -0.00103   2.09444
   A23        2.09724  -0.00014   0.00007  -0.00134  -0.00127   2.09597
   A24        2.09047   0.00034  -0.00044   0.00274   0.00230   2.09277
   A25        2.10376  -0.00008   0.00043  -0.00074  -0.00031   2.10345
   A26        2.07091  -0.00095  -0.00605  -0.00198  -0.00803   2.06288
   A27        2.10851   0.00103   0.00562   0.00272   0.00834   2.11686
    D1        0.00007  -0.00000  -0.00001  -0.00001  -0.00001   0.00005
    D2       -3.14153  -0.00000  -0.00001  -0.00002  -0.00002  -3.14155
    D3       -2.09179  -0.00043  -0.00499  -0.00277  -0.00777  -2.09955
    D4        1.04981  -0.00043  -0.00499  -0.00278  -0.00778   1.04203
    D5        2.09192   0.00043   0.00499   0.00275   0.00775   2.09967
    D6       -1.04967   0.00043   0.00499   0.00274   0.00773  -1.04193
    D7       -0.00004   0.00000   0.00001   0.00002   0.00002  -0.00002
    D8        3.14156   0.00000   0.00001   0.00002   0.00002   3.14158
    D9        3.14155   0.00000   0.00001   0.00001   0.00001   3.14156
   D10       -0.00004   0.00000   0.00001   0.00000   0.00001  -0.00003
   D11       -3.14158  -0.00000   0.00000  -0.00001  -0.00001  -3.14159
   D12        0.00000  -0.00000  -0.00000   0.00000  -0.00000   0.00000
   D13        0.00000  -0.00000   0.00000  -0.00000  -0.00000  -0.00000
   D14        3.14159   0.00000  -0.00000   0.00000   0.00000   3.14159
   D15        3.14159  -0.00000   0.00000  -0.00000  -0.00000   3.14159
   D16       -0.00000   0.00000  -0.00000   0.00000   0.00000  -0.00000
   D17        0.00000  -0.00000   0.00000  -0.00001  -0.00000   0.00000
   D18       -3.14159   0.00000  -0.00000   0.00000   0.00000  -3.14159
   D19       -0.00001   0.00000  -0.00000   0.00001   0.00001   0.00000
   D20        3.14159   0.00000  -0.00000   0.00000   0.00000   3.14159
   D21        3.14159   0.00000  -0.00000   0.00000   0.00000  -3.14159
   D22        0.00000  -0.00000   0.00000  -0.00000  -0.00000  -0.00000
   D23        0.00000  -0.00000   0.00000  -0.00001  -0.00000   0.00000
   D24       -3.14159  -0.00000   0.00000  -0.00000  -0.00000  -3.14159
   D25       -3.14159  -0.00000   0.00000  -0.00000  -0.00000  -3.14159
   D26        0.00000   0.00000  -0.00000   0.00000   0.00000   0.00000
   D27        0.00000  -0.00000   0.00000  -0.00000  -0.00000   0.00000
   D28        3.14159   0.00000  -0.00000   0.00000   0.00000  -3.14159
   D29       -3.14159  -0.00000   0.00000  -0.00000  -0.00000   3.14159
   D30        0.00000   0.00000   0.00000  -0.00000   0.00000   0.00000
   D31       -0.00001   0.00000  -0.00000   0.00001   0.00001  -0.00000
   D32        3.14159   0.00000  -0.00000   0.00000   0.00000   3.14159
   D33        3.14159   0.00000  -0.00000   0.00000   0.00000   3.14159
   D34       -0.00000  -0.00000   0.00000  -0.00000  -0.00000  -0.00000
         Item               Value     Threshold  Converged?
 Maximum Force            0.003254     0.000015     NO 
 RMS     Force            0.000524     0.000010     NO 
 Maximum Displacement     0.013702     0.000060     NO 
 RMS     Displacement     0.003389     0.000040     NO 
 Predicted change in Energy=-4.699313D-05
 GradGradGradGradGradGradGradGradGradGradGradGradGradGradGradGradGradGrad

                          Input orientation:                          
 ---------------------------------------------------------------------
 Center     Atomic      Atomic             Coordinates (Angstroms)
 Number     Number       Type             X           Y           Z
 ---------------------------------------------------------------------
      1          6           0       -2.644393    0.578448   -0.376135
      2          6           0       -1.726013   -0.432172    0.292451
      3          8           0       -2.191068   -1.372362    0.918499
      4          6           0       -0.241748   -0.255020    0.170175
      5          6           0        0.339539    0.807779   -0.537730
      6          6           0        1.726671    0.925783   -0.620410
      7          6           0        2.546422   -0.016912    0.003376
      8          6           0        1.975802   -1.079334    0.710997
      9          6           0        0.591938   -1.196828    0.793329
     10          1           0       -3.679040    0.290931   -0.181875
     11          1           0       -2.474425    0.611739   -1.459019
     12          1           0       -2.469826    1.589128    0.012046
     13          1           0       -0.286748    1.547476   -1.027244
     14          1           0        2.166761    1.752574   -1.171079
     15          1           0        3.627313    0.075719   -0.061502
     16          1           0        2.611815   -1.814105    1.197208
     17          1           0        0.127001   -2.012843    1.336911
 ---------------------------------------------------------------------
                    Distance matrix (angstroms):
                    1          2          3          4          5
     1  C    0.000000
     2  C    1.520455   0.000000
     3  O    2.384794   1.221544   0.000000
     4  C    2.601121   1.499793   2.368184   0.000000
     5  C    2.997092   2.548173   3.643843   1.403056   0.000000
     6  C    4.391641   3.820783   4.795664   2.427754   1.394595
     7  C    5.238611   4.302291   5.011837   2.803285   2.417280
     8  C    5.027554   3.781194   4.182311   2.426830   2.792466
     9  C    3.872091   2.491681   2.791344   1.403693   2.419477
    10  H    1.091282   2.135925   2.488258   3.498140   4.067277
    11  H    1.096647   2.171984   3.109588   2.896617   2.967423
    12  H    1.096646   2.171990   3.109629   2.896588   2.967371
    13  H    2.630865   2.780663   3.992218   2.164447   1.085823
    14  H    5.015746   4.697736   5.755192   3.410323   2.152326
    15  H    6.299685   5.389001   6.075434   3.890076   3.401788
    16  H    5.985603   4.641667   4.831201   3.410039   3.879114
    17  H    4.162925   2.650109   2.441051   2.141773   3.393429
                    6          7          8          9         10
     6  C    0.000000
     7  C    1.396344   0.000000
     8  C    2.419753   1.398240   0.000000
     9  C    2.791371   2.415830   1.391281   0.000000
    10  H    5.460500   6.235821   5.886602   4.626629   0.000000
    11  H    4.295474   5.267135   5.231941   4.212667   1.784687
    12  H    4.295417   5.267085   5.231905   4.212642   1.784691
    13  H    2.146129   3.396519   3.878239   3.408486   3.714997
    14  H    1.086507   2.157445   3.405638   3.877878   6.106415
    15  H    2.155789   1.086791   2.158330   3.400531   7.310513
    16  H    3.405027   2.158568   1.086648   2.150361   6.775537
    17  H    3.876284   3.408175   2.163625   1.085140   4.701068
                   11         12         13         14         15
    11  H    0.000000
    12  H    1.766166   0.000000
    13  H    2.418257   2.418199   0.000000
    14  H    4.788008   4.787947   2.466264   0.000000
    15  H    6.282641   6.282588   4.291689   2.485199   0.000000
    16  H    6.229775   6.229742   4.964885   4.304423   2.487373
    17  H    4.633905   4.633894   4.293750   4.962761   4.309273
                   16         17
    16  H    0.000000
    17  H    2.496660   0.000000
 Stoichiometry    C8H8O
 Framework group  C1[X(C8H8O)]
 Deg. of freedom    45
 Full point group                 C1      NOp   1
 Largest Abelian subgroup         C1      NOp   1
 Largest concise Abelian subgroup C1      NOp   1
                         Standard orientation:                         
 ---------------------------------------------------------------------
 Center     Atomic      Atomic             Coordinates (Angstroms)
 Number     Number       Type             X           Y           Z
 ---------------------------------------------------------------------
      1          6           0       -2.561500    1.047434    0.000015
      2          6           0       -1.697711   -0.203826    0.000002
      3          8           0       -2.212361   -1.311665   -0.000021
      4          6           0       -0.205363   -0.054585    0.000003
      5          6           0        0.431938    1.195381   -0.000007
      6          6           0        1.824094    1.277819   -0.000008
      7          6           0        2.592956    0.112217   -0.000001
      8          6           0        1.966332   -1.137750    0.000008
      9          6           0        0.577468   -1.219716    0.000010
     10          1           0       -3.610509    0.746638    0.000054
     11          1           0       -2.361650    1.666161   -0.883088
     12          1           0       -2.361588    1.666197    0.883078
     13          1           0       -0.154434    2.109263   -0.000013
     14          1           0        2.307769    2.250730   -0.000017
     15          1           0        3.677798    0.177270   -0.000002
     16          1           0        2.562683   -2.046139    0.000015
     17          1           0        0.069542   -2.178642    0.000015
 ---------------------------------------------------------------------
 Rotational constants (GHZ):           3.6805631           1.2109422           0.9163549
 Standard basis: 6-31G(d) (6D, 7F)
 There are   151 symmetry adapted cartesian basis functions of A   symmetry.
 There are   151 symmetry adapted basis functions of A   symmetry.
   151 basis functions,   284 primitive gaussians,   151 cartesian basis functions
    32 alpha electrons       32 beta electrons
       nuclear repulsion energy       400.5126649030 Hartrees.
 NAtoms=   17 NActive=   17 NUniq=   17 SFac= 1.00D+00 NAtFMM=   60 NAOKFM=F Big=F
 Integral buffers will be    131072 words long.
 Raffenetti 2 integral format.
 Two-electron integral symmetry is turned on.
 One-electron integrals computed using PRISM.
 NBasis=   151 RedAO= T EigKep=  4.70D-04  NBF=   151
 NBsUse=   151 1.00D-06 EigRej= -1.00D+00 NBFU=   151
 Initial guess from the checkpoint file:  "0.chk"
 B after Tr=    -0.000000   -0.000000    0.000000
         Rot=    1.000000    0.000000    0.000000   -0.000196 Ang=   0.02 deg.
 Requested convergence on RMS density matrix=1.00D-08 within 128 cycles.
 Requested convergence on MAX density matrix=1.00D-06.
 Requested convergence on             energy=1.00D-06.
 No special actions if energy rises.
 SCF Done:  E(RB3LYP) =  -384.895984499     A.U. after    9 cycles
            NFock=  9  Conv=0.57D-08     -V/T= 2.0096
 Calling FoFJK, ICntrl=      2127 FMM=F ISym2X=0 I1Cent= 0 IOpClX= 0 NMat=1 NMatS=1 NMatT=0.
 ***** Axes restored to original set *****
 -------------------------------------------------------------------
 Center     Atomic                   Forces (Hartrees/Bohr)
 Number     Number              X              Y              Z
 -------------------------------------------------------------------
      1        6          -0.000159387    0.000079687   -0.000052334
      2        6           0.000249100    0.000140099   -0.000095317
      3        8          -0.000265653   -0.000236486    0.000158665
      4        6           0.000004358    0.000232898   -0.000154461
      5        6          -0.000197851   -0.000024792    0.000017353
      6        6           0.000242484   -0.000087214    0.000057010
      7        6          -0.000140411    0.000202547   -0.000134076
      8        6          -0.000122139   -0.000079958    0.000053586
      9        6           0.000139604   -0.000184472    0.000121929
     10        1           0.000013789    0.000025077   -0.000016647
     11        1           0.000000438   -0.000079636    0.000017551
     12        1           0.000000344   -0.000046924    0.000066754
     13        1           0.000085766   -0.000042367    0.000027866
     14        1           0.000104957    0.000009437   -0.000006575
     15        1           0.000030326    0.000012074   -0.000008116
     16        1           0.000094903    0.000045132   -0.000030314
     17        1          -0.000080627    0.000034898   -0.000022872
 -------------------------------------------------------------------
 Cartesian Forces:  Max     0.000265653 RMS     0.000116557

 GradGradGradGradGradGradGradGradGradGradGradGradGradGradGradGradGradGrad
 Berny optimization.
 Using GEDIIS/GDIIS optimizer.
 FormGI is forming the generalized inverse of G from B-inverse, IUseBI=4.
 Internal  Forces:  Max     0.000364334 RMS     0.000081481
 Search for a local minimum.
 Step number   3 out of a maximum of   88
 All quantities printed in internal units (Hartrees-Bohrs-Radians)
 Mixed Optimization -- En-DIIS/RFO-DIIS
 Swapping is turned off.
 Update second derivatives using D2CorX and points    1    2    3
 DE= -4.61D-05 DEPred=-4.70D-05 R= 9.81D-01
 TightC=F SS=  1.41D+00  RLast= 2.87D-02 DXNew= 5.0454D-01 8.6160D-02
 Trust test= 9.81D-01 RLast= 2.87D-02 DXMaxT set to 3.00D-01
 ITU=  1  1  0
     Eigenvalues ---    0.00681   0.00749   0.00851   0.01695   0.02080
     Eigenvalues ---    0.02098   0.02105   0.02124   0.02139   0.02157
     Eigenvalues ---    0.02161   0.02171   0.06693   0.07422   0.13807
     Eigenvalues ---    0.16000   0.16000   0.16000   0.16000   0.16000
     Eigenvalues ---    0.16087   0.16402   0.21983   0.22094   0.23719
     Eigenvalues ---    0.24634   0.25016   0.25064   0.31393   0.33479
     Eigenvalues ---    0.34225   0.34436   0.34464   0.35101   0.35119
     Eigenvalues ---    0.35127   0.35269   0.35589   0.41768   0.41966
     Eigenvalues ---    0.45366   0.46060   0.46376   0.47113   0.90757
 En-DIIS/RFO-DIIS/Sim-DIIS IScMMF=       -3 using points:     3    2
 RFO step:  Lambda=-1.53650084D-06.
 DidBck=F Rises=F RFO-DIIS coefs:    1.00075   -0.00075
 Iteration  1 RMS(Cart)=  0.00074918 RMS(Int)=  0.00000016
 Iteration  2 RMS(Cart)=  0.00000022 RMS(Int)=  0.00000001
 Variable       Old X    -DE/DX   Delta X   Delta X   Delta X     New X
                                 (Linear)    (Quad)   (Total)
    R1        2.87324   0.00007   0.00000   0.00025   0.00025   2.87349
    R2        2.06222  -0.00002  -0.00000  -0.00009  -0.00009   2.06213
    R3        2.07236  -0.00002   0.00000  -0.00004  -0.00004   2.07232
    R4        2.07236  -0.00002   0.00000  -0.00004  -0.00004   2.07232
    R5        2.30838   0.00036  -0.00000   0.00034   0.00034   2.30872
    R6        2.83420   0.00018  -0.00000   0.00052   0.00052   2.83472
    R7        2.65139   0.00004  -0.00000   0.00010   0.00010   2.65149
    R8        2.65260   0.00017   0.00000   0.00041   0.00041   2.65301
    R9        2.63540   0.00020  -0.00000   0.00040   0.00040   2.63580
   R10        2.05191  -0.00009   0.00000  -0.00024  -0.00024   2.05167
   R11        2.63871  -0.00024   0.00000  -0.00052  -0.00052   2.63818
   R12        2.05320   0.00005  -0.00000   0.00015   0.00014   2.05335
   R13        2.64229   0.00009   0.00000   0.00017   0.00017   2.64246
   R14        2.05374   0.00003  -0.00000   0.00008   0.00008   2.05382
   R15        2.62914   0.00002  -0.00000   0.00002   0.00002   2.62916
   R16        2.05347   0.00001   0.00000   0.00003   0.00003   2.05350
   R17        2.05062  -0.00000   0.00000   0.00001   0.00001   2.05063
    A1        1.89576   0.00005  -0.00000   0.00021   0.00020   1.89596
    A2        1.93989  -0.00007   0.00000  -0.00038  -0.00038   1.93951
    A3        1.93990  -0.00007   0.00000  -0.00038  -0.00038   1.93952
    A4        1.90786  -0.00000   0.00001   0.00000   0.00001   1.90787
    A5        1.90787  -0.00000   0.00001   0.00000   0.00001   1.90788
    A6        1.87222   0.00010  -0.00001   0.00055   0.00054   1.87276
    A7        2.10249  -0.00020  -0.00000  -0.00079  -0.00079   2.10170
    A8        2.07533   0.00008  -0.00000   0.00029   0.00029   2.07563
    A9        2.10536   0.00012   0.00000   0.00049   0.00050   2.10586
   A10        2.14197   0.00016   0.00000   0.00060   0.00060   2.14257
   A11        2.06273  -0.00013  -0.00000  -0.00055  -0.00056   2.06217
   A12        2.07849  -0.00004   0.00000  -0.00005  -0.00005   2.07844
   A13        2.10144   0.00001  -0.00000   0.00007   0.00007   2.10151
   A14        2.09963   0.00003  -0.00000   0.00016   0.00016   2.09978
   A15        2.08212  -0.00005   0.00000  -0.00023  -0.00023   2.08189
   A16        2.09476  -0.00002   0.00000  -0.00014  -0.00014   2.09462
   A17        2.09130   0.00010  -0.00000   0.00064   0.00064   2.09194
   A18        2.09712  -0.00008   0.00000  -0.00050  -0.00050   2.09662
   A19        2.09378   0.00007   0.00000   0.00025   0.00025   2.09403
   A20        2.09402  -0.00005   0.00000  -0.00018  -0.00018   2.09383
   A21        2.09539  -0.00002  -0.00000  -0.00006  -0.00006   2.09532
   A22        2.09444   0.00002  -0.00000   0.00003   0.00003   2.09447
   A23        2.09597  -0.00012  -0.00000  -0.00072  -0.00072   2.09525
   A24        2.09277   0.00010   0.00000   0.00069   0.00069   2.09347
   A25        2.10345  -0.00005  -0.00000  -0.00015  -0.00016   2.10330
   A26        2.06288  -0.00007  -0.00001  -0.00059  -0.00059   2.06228
   A27        2.11686   0.00012   0.00001   0.00074   0.00075   2.11760
    D1        0.00005  -0.00000  -0.00000  -0.00003  -0.00003   0.00002
    D2       -3.14155   0.00000  -0.00000   0.00001   0.00001  -3.14154
    D3       -2.09955   0.00001  -0.00001   0.00007   0.00006  -2.09949
    D4        1.04203   0.00001  -0.00001   0.00011   0.00011   1.04213
    D5        2.09967  -0.00001   0.00001  -0.00013  -0.00013   2.09955
    D6       -1.04193  -0.00001   0.00001  -0.00009  -0.00008  -1.04201
    D7       -0.00002  -0.00000   0.00000  -0.00001  -0.00001  -0.00003
    D8        3.14158  -0.00000   0.00000  -0.00001  -0.00001   3.14156
    D9        3.14156   0.00000   0.00000   0.00003   0.00003  -3.14159
   D10       -0.00003   0.00000   0.00000   0.00003   0.00003   0.00000
   D11       -3.14159   0.00000  -0.00000   0.00000   0.00000  -3.14159
   D12        0.00000  -0.00000  -0.00000  -0.00000  -0.00000   0.00000
   D13       -0.00000   0.00000  -0.00000   0.00000   0.00000   0.00000
   D14        3.14159  -0.00000   0.00000  -0.00000  -0.00000   3.14159
   D15        3.14159   0.00000  -0.00000   0.00000   0.00000   3.14159
   D16       -0.00000  -0.00000   0.00000  -0.00000  -0.00000  -0.00000
   D17        0.00000   0.00000  -0.00000   0.00000   0.00000   0.00000
   D18       -3.14159  -0.00000   0.00000  -0.00000  -0.00000  -3.14159
   D19        0.00000  -0.00000   0.00000  -0.00000  -0.00000  -0.00000
   D20        3.14159  -0.00000   0.00000  -0.00000  -0.00000   3.14159
   D21       -3.14159  -0.00000   0.00000  -0.00000  -0.00000   3.14159
   D22       -0.00000   0.00000  -0.00000   0.00000   0.00000   0.00000
   D23        0.00000   0.00000  -0.00000   0.00000   0.00000   0.00000
   D24       -3.14159   0.00000  -0.00000   0.00000   0.00000  -3.14159
   D25       -3.14159  -0.00000  -0.00000  -0.00000  -0.00000  -3.14159
   D26        0.00000  -0.00000   0.00000  -0.00000  -0.00000   0.00000
   D27        0.00000   0.00000  -0.00000   0.00000   0.00000   0.00000
   D28       -3.14159  -0.00000   0.00000  -0.00000  -0.00000   3.14159
   D29        3.14159   0.00000  -0.00000   0.00000   0.00000  -3.14159
   D30        0.00000  -0.00000   0.00000  -0.00000  -0.00000   0.00000
   D31       -0.00000  -0.00000   0.00000  -0.00000  -0.00000  -0.00000
   D32        3.14159   0.00000   0.00000   0.00000   0.00000   3.14159
   D33        3.14159  -0.00000   0.00000  -0.00000  -0.00000   3.14159
   D34       -0.00000   0.00000  -0.00000   0.00000   0.00000  -0.00000
         Item               Value     Threshold  Converged?
 Maximum Force            0.000364     0.000015     NO 
 RMS     Force            0.000081     0.000010     NO 
 Maximum Displacement     0.003228     0.000060     NO 
 RMS     Displacement     0.000749     0.000040     NO 
 Predicted change in Energy=-7.682563D-07
 GradGradGradGradGradGradGradGradGradGradGradGradGradGradGradGradGradGrad

                          Input orientation:                          
 ---------------------------------------------------------------------
 Center     Atomic      Atomic             Coordinates (Angstroms)
 Number     Number       Type             X           Y           Z
 ---------------------------------------------------------------------
      1          6           0       -2.645267    0.578168   -0.375946
      2          6           0       -1.726110   -0.432110    0.292391
      3          8           0       -2.191475   -1.372337    0.918502
      4          6           0       -0.241633   -0.254572    0.169868
      5          6           0        0.340086    0.808110   -0.537957
      6          6           0        1.727462    0.925842   -0.620452
      7          6           0        2.546606   -0.016933    0.003394
      8          6           0        1.975763   -1.079352    0.711011
      9          6           0        0.591872   -1.196714    0.793247
     10          1           0       -3.679740    0.290346   -0.181477
     11          1           0       -2.475441    0.611189   -1.458839
     12          1           0       -2.470828    1.588747    0.012499
     13          1           0       -0.285701    1.547968   -1.027583
     14          1           0        2.168468    1.752363   -1.170943
     15          1           0        3.627564    0.075515   -0.061358
     16          1           0        2.612292   -1.813832    1.197031
     17          1           0        0.126083   -2.012396    1.336610
 ---------------------------------------------------------------------
                    Distance matrix (angstroms):
                    1          2          3          4          5
     1  C    0.000000
     2  C    1.520587   0.000000
     3  O    2.384532   1.221722   0.000000
     4  C    2.601697   1.500068   2.368910   0.000000
     5  C    2.998576   2.548881   3.644781   1.403107   0.000000
     6  C    4.393338   3.821581   4.796673   2.428028   1.394804
     7  C    5.239617   4.302557   5.012380   2.803295   2.417123
     8  C    5.028198   3.781274   4.182674   2.426921   2.792467
     9  C    3.872504   2.491690   2.791693   1.403911   2.419674
    10  H    1.091235   2.136156   2.487851   3.498708   4.068681
    11  H    1.096626   2.171815   3.109142   2.896917   2.968838
    12  H    1.096626   2.171821   3.109164   2.896878   2.968777
    13  H    2.633001   2.781694   3.993420   2.164482   1.085695
    14  H    5.018247   4.699044   5.756617   3.410888   2.152967
    15  H    6.300797   5.389309   6.075987   3.890130   3.401669
    16  H    5.986472   4.642118   4.832046   3.410461   3.879134
    17  H    4.162241   2.649210   2.440403   2.141599   3.393384
                    6          7          8          9         10
     6  C    0.000000
     7  C    1.396067   0.000000
     8  C    2.419763   1.398327   0.000000
     9  C    2.791658   2.415934   1.391291   0.000000
    10  H    5.462086   6.236664   5.887047   4.626889   0.000000
    11  H    4.297243   5.268170   5.232533   4.212935   1.784637
    12  H    4.297175   5.268105   5.232480   4.212896   1.784640
    13  H    2.146071   3.396143   3.878111   3.408642   3.717123
    14  H    1.086584   2.156957   3.405510   3.878242   6.108852
    15  H    2.155465   1.086835   2.158406   3.400639   7.311448
    16  H    3.404699   2.158224   1.086666   2.150807   6.776246
    17  H    3.876564   3.408558   2.164084   1.085144   4.700159
                   11         12         13         14         15
    11  H    0.000000
    12  H    1.766486   0.000000
    13  H    2.420433   2.420374   0.000000
    14  H    4.790727   4.790655   2.466836   0.000000
    15  H    6.283834   6.283766   4.291311   2.484342   0.000000
    16  H    6.230521   6.230471   4.964772   4.303722   2.486755
    17  H    4.633105   4.633082   4.293619   4.963121   4.309762
                   16         17
    16  H    0.000000
    17  H    2.498028   0.000000
 Stoichiometry    C8H8O
 Framework group  C1[X(C8H8O)]
 Deg. of freedom    45
 Full point group                 C1      NOp   1
 Largest Abelian subgroup         C1      NOp   1
 Largest concise Abelian subgroup C1      NOp   1
                         Standard orientation:                         
 ---------------------------------------------------------------------
 Center     Atomic      Atomic             Coordinates (Angstroms)
 Number     Number       Type             X           Y           Z
 ---------------------------------------------------------------------
      1          6           0       -2.562252    1.047405    0.000017
      2          6           0       -1.697834   -0.203582   -0.000013
      3          8           0       -2.212943   -1.311403   -0.000008
      4          6           0       -0.205234   -0.054089   -0.000005
      5          6           0        0.432658    1.195632   -0.000009
      6          6           0        1.825054    1.277545   -0.000005
      7          6           0        2.593150    0.111770    0.000004
      8          6           0        1.966140   -1.138101    0.000009
      9          6           0        0.577245   -1.219719    0.000003
     10          1           0       -3.611143    0.746372    0.000062
     11          1           0       -2.362472    1.665895   -0.883242
     12          1           0       -2.362397    1.665916    0.883244
     13          1           0       -0.153085    2.109764   -0.000016
     14          1           0        2.309760    2.250029   -0.000010
     15          1           0        3.678059    0.176454    0.000008
     16          1           0        2.562901   -2.046242    0.000016
     17          1           0        0.068358   -2.178140    0.000005
 ---------------------------------------------------------------------
 Rotational constants (GHZ):           3.6808429           1.2104626           0.9160995
 Standard basis: 6-31G(d) (6D, 7F)
 There are   151 symmetry adapted cartesian basis functions of A   symmetry.
 There are   151 symmetry adapted basis functions of A   symmetry.
[...]
   yx         0.220003D+02      0.326010D+01      0.362735D+01
   yy         0.435281D+02      0.645019D+01      0.717681D+01
   zx         0.108505D+02      0.160788D+01      0.178901D+01
   zy         0.392026D+01      0.580923D+00      0.646364D+00
   zz         0.101766D+03      0.150802D+02      0.167790D+02

 ----------------------------------------------------------------------
 1\1\GINC-MAC-2024NOMAC-STUDIO\Freq\RB3LYP\6-31G(d)\C8H8O1\ROOT\14-Nov-
 2024\0\\#N Geom=AllCheck Guess=TCheck SCRF=Check GenChk RB3LYP/6-31G(d
 ) Freq\\good luck\\0,1\C,-2.6450926412,0.5782312589,-0.3759954708\C,-1
 .7259869873,-0.4320878808,0.2924044742\O,-2.1912239684,-1.3724081575,0
 .9185626931\C,-0.2416037652,-0.2545012692,0.169834127\C,0.3398918935,0
 .8081321353,-0.5379607658\C,1.7273545612,0.9258562973,-0.6204610124\C,
 2.5464022861,-0.0169021195,0.0033646986\C,1.9756421362,-1.0794484777,0
 .7110685055\C,0.59186632,-1.1967967126,0.7933069484\H,-3.6795678797,0.
 2903914487,-0.1815503224\H,-2.4752195947,0.6110691459,-1.4588723868\H,
 -2.4706580272,1.5887277544,0.0126254045\H,-0.2858682704,1.5480213154,-
 1.0276002477\H,2.1684275647,1.7523464494,-1.1709321982\H,3.6273816435,
 0.075466757,-0.061342735\H,2.6124694839,-1.8137504163,1.1969614383\H,0
 .125785245,-2.0123465287,1.3365858494\\Version=EM64M-G16RevA.03\State=
 1-A\HF=-384.8959854\RMSD=5.017e-09\RMSF=1.384e-06\ZeroPoint=0.1384294\
 Thermal=0.146235\Dipole=0.6918688,0.7942899,-0.5298446\DipoleDeriv=-0.
 1959897,0.1589034,-0.1047621,0.1845696,-0.1213428,0.1242877,-0.1218182
 ,0.1243705,-0.0156695,1.7359508,0.0237627,-0.0206187,0.0437883,0.71819
 73,-0.3635355,-0.0339234,-0.3634737,0.4128104,-0.9410925,-0.1382298,0.
 0937779,-0.2691736,-0.6965607,0.2558456,0.1807728,0.2554393,-0.4829884
 ,-0.7149783,-0.0250115,0.0188237,0.0581284,-0.0707763,0.0466571,-0.036
 4109,0.046914,-0.0313356,0.126308,-0.0942383,0.0619063,0.0612054,-0.01
 67191,-0.0566462,-0.0413653,-0.0561659,-0.0642518,-0.1675639,0.1137359
 ,-0.0754046,0.1438719,0.0368427,-0.1017955,-0.0954267,-0.1017028,-0.04
 78413,0.1449547,0.0142057,-0.0101515,-0.0105315,-0.0073898,-0.0521901,
 0.0062837,-0.0522664,-0.0512867,-0.0447649,-0.1692097,0.1122044,-0.136
 2457,-0.0088734,-0.0699246,0.0903032,-0.0698227,-0.0686434,0.0330547,0
 .1256743,-0.0838401,-0.073669,-0.0028241,-0.0499488,0.0486001,-0.05056
 38,-0.0449028,-0.0917557,-0.007985,0.0058322,-0.0477986,0.0599224,0.01
 23542,0.032284,0.0122303,0.0700686,0.0494251,0.0166656,0.0566272,0.018
 3957,0.0654526,0.0026663,0.0329694,0.0071027,-0.0766081,0.0489385,-0.0
 462657,-0.037442,-0.0237662,-0.0585678,-0.0449062,-0.0298807,-0.049269
 1,0.0478986,0.0231458,0.0731168,-0.0483302,0.0736323,0.0114607,0.06081
 86,-0.0486728,0.0608204,0.0630863,0.0221936,-0.0491851,0.0329595,-0.06
 31615,-0.0239385,0.0914194,0.0422451,0.0913763,0.052528,-0.1146139,-0.
 0147475,0.0104929,-0.0149433,0.078411,0.0212839,0.0106232,0.0212833,0.
 0962038,-0.013842,0.0679306,-0.044739,0.0754265,0.0000335,0.0751095,-0
 .0497192,0.0751326,0.0636716,0.1006299,-0.0491225,0.0326641,-0.0197287
 ,0.0366723,0.0485045,0.0131357,0.048595,0.0772604\Polar=114.4722168,1.
 8279881,74.5214406,-1.4581097,-25.8777368,52.7772588\Quadrupole=1.2868
 269,-0.1338102,-1.1530168,-3.7995503,2.5143972,-1.1820714\PG=C01 [X(C8
 H8O1)]\NImag=0\\0.56377290,0.05856267,0.51845442,-0.03900503,0.0091606
 6,0.52654646,-0.14713656,0.03815343,-0.02516830,0.55991682,0.04254066,
 -0.11282049,0.01580113,0.11252816,0.68026150,-0.02808318,0.01581454,-0
 .09925980,-0.07580251,-0.30459226,0.42491666,0.02040366,0.01255433,-0.
 00832548,-0.18976010,-0.17657539,0.11769005,0.20992177,-0.00684132,-0.
 03439979,0.03970340,-0.16851786,-0.46106917,0.26218574,0.20782913,0.50
 565041,0.00456051,0.03964386,-0.00102326,0.11233676,0.26221045,-0.2417
 6759,-0.13864724,-0.32008505,0.23791430,-0.01590551,0.00146182,-0.0008
 7369,-0.18128278,0.01979974,-0.01283644,-0.03146561,-0.03852136,0.0257
 4897,0.61061157,0.02025445,0.01035334,0.00347819,0.00807356,-0.0954741
 8,0.01137923,-0.04600506,-0.00666128,0.01730402,-0.00073268,0.53232437
 ,-0.01335927,0.00353631,0.01337476,-0.00504556,0.01134296,-0.08583000,
 0.03072084,0.01728090,0.00759478,-0.00095642,-0.25843918,0.31503665,-0
 .00254605,0.00061749,-0.00040662,-0.01067694,-0.02631841,0.01751737,-0
 .00615698,0.00003795,0.00000314,-0.15429741,-0.03521487,0.02367671,0.7
 0119977,0.00039026,-0.00071153,-0.00043409,-0.01469603,-0.00093891,0.0
 0040838,0.00589296,0.00501017,-0.00132452,-0.07798938,-0.22250036,0.10
 583686,-0.03158317,0.53308637,-0.00025563,-0.00043489,-0.00107352,0.00
 979552,0.00044436,-0.00071785,-0.00388679,-0.00130650,0.00392382,0.052
 09546,0.10570478,-0.13395238,0.01923557,-0.26413180,0.31080809,0.00037
 589,-0.00000998,0.00000063,0.00613624,-0.00179895,0.00120062,-0.003140
 77,-0.00164457,0.00109717,-0.01883436,-0.06456058,0.04297961,-0.339215
 18,0.00926899,-0.00529738,0.68413606,0.00029706,-0.00052106,-0.0007023
 8,-0.00114775,-0.00139176,0.00617270,-0.00128820,-0.00020082,-0.000971
 95,-0.02555443,0.01736202,-0.00535700,-0.04727049,-0.10986550,0.032901
 03,0.02150526,0.54944509,-0.00020339,-0.00070140,-0.00111016,0.0007679
 6,0.00617469,0.00378895,0.00086044,-0.00097080,-0.00102736,0.01706455,
 -0.00523660,0.01260642,0.03226660,0.03272639,-0.08240696,-0.01600227,-
 0.27933597,0.31473940,-0.00015687,0.00008802,-0.00005707,0.00048955,-0
 .00061577,0.00040570,-0.00043971,0.00067313,-0.00044593,-0.00115037,0.
 00625983,-0.00418101,-0.03766984,0.01815876,-0.01192656,-0.20275276,0.
 11153390,-0.07366328,0.74480716,0.00029688,-0.00019412,0.00032678,0.00
 034932,-0.00300733,0.00159545,-0.00153937,0.00007670,-0.00006504,0.005
 34839,-0.04641392,0.02530701,0.05966523,0.03240304,-0.01708542,0.05496
 449,-0.20587016,0.09617840,0.00354477,0.50731539,-0.00019584,0.0003273
 9,0.00008214,-0.00023546,0.00159846,-0.00166553,0.00102401,-0.00007189
 ,0.00001621,-0.00357548,0.02530426,-0.02509886,-0.03950287,-0.01695723
 ,0.01835249,-0.03607934,0.09600364,-0.12452394,-0.00424013,-0.24769590
 ,0.29909141,-0.00077337,0.00020357,-0.00013522,0.00393909,0.00630434,-
 0.00417902,0.00124818,-0.00191019,0.00126339,-0.03878280,0.05290490,-0
 .03500389,-0.04555531,-0.02591643,0.01733575,0.06535842,-0.00943123,0.
 00608799,-0.16462849,-0.03451202,0.02324983,0.70459095,0.00121772,0.00
 076673,-0.00101233,0.00440622,-0.00130459,0.00550147,-0.00171983,0.000
 30390,-0.00059062,0.01485707,0.03151471,-0.01548948,-0.02597694,-0.018
 30945,0.00719600,0.03006781,-0.03618568,0.02909430,-0.09106643,-0.2286
 9651,0.11179317,-0.03128048,0.53785171,-0.00080896,-0.00100915,-0.0000
 7828,-0.00291802,0.00549560,0.00335424,0.00113696,-0.00059000,-0.00020
 455,-0.00972545,-0.01560707,0.01866890,0.01737594,0.00719580,-0.012433
 65,-0.02015459,0.02921632,-0.01160325,0.06082379,0.11161848,-0.1352001
 0,0.01901089,-0.27016925,0.31049914,-0.00433485,-0.00332549,0.00222890
 ,-0.03569246,0.01743599,-0.01146596,-0.00058288,0.00672557,-0.00446673
 ,-0.18149663,0.05221434,-0.03433687,0.06052709,0.02742136,-0.01837925,
 -0.05649249,0.01967397,-0.01291974,-0.01520889,-0.06894863,0.04587609,
 -0.35012496,0.01006692,-0.00579667,0.70844198,-0.00261641,0.00066545,0
 .00085788,0.01043899,0.01363347,-0.00733611,-0.00217261,-0.00596376,0.
 00391561,0.09438228,-0.19769291,0.08652838,-0.00776750,-0.03551733,0.0
 2922866,0.02116290,-0.01041285,0.00187208,-0.02944622,0.01827464,-0.00
 761543,-0.04519308,-0.11143061,0.03335837,0.03442651,0.54049037,0.0017
 5770,0.00086008,0.00136774,-0.00681708,-0.00735783,0.00754934,0.001444
 95,0.00388823,-0.00266787,-0.06235266,0.08665864,-0.12439795,0.0049997
 3,0.02911995,-0.01092229,-0.01390897,0.00187669,-0.00870057,0.01963124
 ,-0.00749339,0.01159325,0.03091726,0.03318764,-0.08357632,-0.02462732,
 -0.26599912,0.31708376,-0.29755444,-0.06995835,0.04724601,-0.02323539,
 -0.00712585,0.00480343,0.00496802,-0.00159180,0.00103853,-0.00072197,0
 .00312433,-0.00206860,0.00052260,0.00041318,-0.00027557,0.00011462,-0.
 00004440,0.00002969,0.00000730,0.00006266,-0.00004167,-0.00016898,0.00
 028252,-0.00018769,-0.00089078,-0.00059048,0.00039596,0.32104102,-0.07
 437299,-0.06927250,0.01276636,0.02526832,0.00577793,-0.00453956,-0.001
 86511,0.00152696,-0.00178527,0.00131797,-0.00291353,0.00299005,-0.0002
 4335,-0.00069792,0.00058310,-0.00006469,0.00030983,-0.00008925,-0.0000
 7101,-0.00005817,0.00003623,0.00017293,-0.00029692,0.00008826,0.001122
 35,0.00054765,-0.00017180,0.07610850,0.07161359,0.05017902,0.01275265,
 -0.05903245,-0.01671918,-0.00443904,0.00206432,0.00122019,-0.00178622,
 0.00001400,-0.00086848,0.00298446,-0.00038710,0.00016060,0.00058106,-0
 .00020794,0.00004316,-0.00008931,0.00023440,0.00004714,0.00003581,-0.0
 0002791,-0.00011487,0.00008793,-0.00022133,-0.00074203,-0.00016651,0.0
 0040718,-0.05141241,-0.01594949,0.05871867,-0.05668214,-0.00049455,0.0
 3878635,0.00715238,-0.00479677,-0.02037175,-0.00092453,0.00370698,0.00
 027980,-0.00110971,0.00095446,0.00199816,-0.00084941,0.00007329,-0.000
 21956,-0.00010078,-0.00024122,-0.00019074,-0.00001632,0.00010313,-0.00
 005127,-0.00016881,-0.00031434,0.00002142,0.00048952,-0.00003696,0.000
 31174,-0.00193035,0.00086187,0.03093178,0.05497432,-0.00090990,-0.0418
 2142,0.01007518,-0.00743201,0.00025593,0.02370140,0.00322268,-0.005548
 97,-0.00036911,0.00004387,-0.00054485,-0.00174548,-0.00020551,0.000665
 04,-0.00035249,0.00033699,-0.00011715,0.00021687,0.00001564,0.00015381
 ,-0.00016597,-0.00016460,0.00002602,0.00013158,0.00012784,-0.00033703,
 -0.00011097,-0.00027837,-0.00086171,0.00902273,0.00064377,0.04621096,0
 .04094035,0.00583658,-0.30563098,0.00512887,-0.00010349,-0.01225156,-0
 .00274101,0.00208098,-0.00006708,-0.00017767,0.00068721,0.00065256,0.0
 0043685,0.00091861,0.00001448,-0.00022549,-0.00018235,0.00033290,0.000
 09141,-0.00018073,0.00009916,0.00022480,0.00002047,-0.00007191,-0.0004
 0880,0.00011253,0.00010035,0.00034686,-0.00040025,-0.00336461,-0.04590
 998,-0.00840722,0.33112981,-0.05702578,-0.03693315,-0.01491480,0.00725
 292,0.01691378,0.01229152,-0.00093375,0.00118294,-0.00352875,-0.001120
 29,-0.00147146,-0.00164891,-0.00084998,0.00023009,0.00002621,-0.000099
 27,0.00008496,0.00029647,-0.00001683,0.00008735,-0.00007545,-0.0001684
 8,-0.00014109,0.00028235,0.00048966,-0.00030278,-0.00008923,-0.0020663
 6,-0.02816264,-0.01277185,0.00023145,0.00488114,0.00207541,0.05537068,
 -0.03909765,-0.27148516,-0.09058759,-0.00771767,-0.01882960,-0.0081176
 7,0.00379037,-0.00151637,0.00377613,0.00019189,0.00085444,0.00127779,-
 0.00047765,-0.00008938,0.00060321,0.00033935,0.00025179,-0.00002905,-0
 .00007814,0.00023120,-0.00014764,-0.00027102,-0.00011034,-0.00003699,0
 .00042624,0.00003376,0.00026696,-0.00045017,-0.00598722,-0.00255078,-0
 .00001437,0.00209690,0.00046137,0.04366745,0.29410457,-0.01535443,-0.0
 8635720,-0.07562474,0.00490664,0.01560265,0.00673383,-0.00191854,0.001
 33285,-0.00409077,0.00002676,-0.00115251,-0.00073612,0.00002521,-0.000
 67099,0.00076940,-0.00022195,0.00037274,-0.00003755,-0.00005006,-0.000
 13366,0.00002228,0.00006584,0.00007418,0.00006413,0.00003743,0.0000462
 4,-0.00027058,0.00015851,0.00695453,0.00189703,-0.00544387,-0.03188903
 ,-0.01109756,0.01759053,0.09566657,0.08284086,-0.00173599,-0.00026795,
 0.00018872,0.00042562,-0.00020463,0.00012138,0.00030096,0.00046604,-0.
 00030838,0.01212810,-0.00843978,0.00557581,-0.15253778,0.10931909,-0.0
 7227108,-0.01385094,0.02343265,-0.01551512,-0.00537129,-0.00196411,0.0
 0134439,-0.00046685,-0.00070394,0.00046819,-0.00081949,-0.00247428,0.0
 0166561,0.00011604,-0.00020641,0.00013547,-0.00120626,-0.00019249,0.00
 006836,-0.00120387,-0.00013527,0.00015452,0.16323586,0.00024544,0.0007
 4256,0.00065141,0.00257038,-0.00157509,-0.00181441,-0.00069057,0.00052
 701,0.00011978,0.01520855,-0.01258747,0.00960604,0.10926755,-0.1834380
 7,0.09741799,-0.00317566,0.00557581,-0.00145181,-0.00099423,0.00311137
 ,0.00285593,-0.00064444,-0.00003070,-0.00018050,-0.00353473,-0.0007248
 7,0.00462100,0.00000737,0.00026871,-0.00046126,-0.00041514,-0.00018768
 ,-0.00073069,0.00006188,0.00037110,0.00010546,-0.11907710,0.18924770,-
 0.00015237,0.00065305,0.00129085,-0.00172228,-0.00180584,-0.00308901,0
 .00046004,0.00011620,0.00062547,-0.01013585,0.00967906,-0.00445755,-0.
 07223682,0.09741787,-0.10080154,0.00216306,-0.00153401,0.00438834,0.00
 070003,0.00285892,0.00550376,0.00042867,-0.00018031,-0.00018691,0.0023
 7014,0.00461774,0.00313871,-0.00000657,-0.00046060,-0.00011950,-0.0002
 3626,-0.00012865,0.00010830,0.00047609,-0.00049669,-0.00045291,0.07868
 687,-0.10860938,0.09713640,-0.00009083,-0.00000915,0.00000638,0.001111
 61,-0.00111323,0.00073820,-0.00103758,-0.00043023,0.00028789,-0.005862
 19,0.00115809,-0.00072866,-0.00846618,-0.02578770,0.01716528,-0.106165
 72,-0.08600659,0.05735993,0.01198987,0.01561767,-0.01040591,-0.0020965
 8,0.00252374,-0.00164883,-0.00090281,0.00065861,-0.00043570,-0.0000447
 9,0.00002775,-0.00001827,-0.00000057,-0.00000553,-0.00002297,-0.000000
 48,0.00001905,0.00001403,0.00113659,0.00025160,-0.00018290,0.10893784,
 -0.00007918,0.00002623,-0.00001245,0.00065279,0.00021998,0.00028333,-0
 .00024944,-0.00022294,-0.00009680,-0.00038014,0.00343701,0.00258662,0.
 00070655,0.00136655,0.00040857,-0.08601642,-0.21435744,0.11910843,-0.0
 1093097,-0.01239907,0.00983918,0.00362331,0.00062877,0.00418076,0.0006
 9873,0.00014715,-0.00029736,-0.00001978,0.00000658,0.00000094,0.000001
 49,0.00000833,0.00000741,-0.00000458,0.00000006,-0.00000474,-0.0002689
 2,-0.00059209,-0.00223716,0.09275438,0.22320603,0.00005291,-0.00001266
 ,0.00001537,-0.00043513,0.00028878,0.00045895,0.00016780,-0.00009624,-
 0.00030638,0.00029330,0.00258187,0.00561223,-0.00043713,0.00049042,0.0
 0166032,0.05736646,0.11910840,-0.11479270,0.00723264,0.00975716,-0.004
 14534,-0.00237936,0.00418416,0.00416573,-0.00046236,-0.00029724,-0.000
 09827,0.00001330,0.00000079,0.00000733,0.00000557,-0.00000126,0.000001
 23,-0.00000348,0.00000388,0.00000942,0.00016292,-0.00223877,-0.0024736
 9,-0.06188243,-0.13162999,0.11315892,-0.00008447,-0.00000174,0.0000020
 6,0.00019771,0.00000981,-0.00001137,-0.00023459,-0.00004165,0.00002915
 ,0.00070641,0.00018021,-0.00012324,-0.00005603,0.00298990,-0.00196392,
 -0.01405515,-0.00387623,0.00262883,-0.33631888,-0.02342764,0.01648763,
 -0.00861124,0.00110373,-0.00069649,0.00097357,-0.00217997,0.00146742,-
 0.00002447,-0.00001288,0.00000856,0.00002345,0.00001980,0.00002655,0.0
 0002296,-0.00001707,-0.00002874,-0.00079680,-0.00022014,0.00014890,0.0
 0090431,0.00018820,-0.00013975,0.35695243,0.00001054,0.00007233,0.0000
 8902,-0.00003283,-0.00054682,-0.00054862,-0.00011715,0.00025969,-0.000
 00997,0.00021481,-0.00104387,0.00040729,0.00215245,-0.00064387,0.00522
 900,0.02249626,0.00621181,-0.00202428,-0.02350142,-0.05598065,0.012278
 05,-0.02518824,0.00271586,0.00047140,-0.00133631,-0.00155589,0.0057875
 6,-0.00000370,0.00001592,-0.00002690,0.00002135,-0.00001292,-0.0000621
 5,-0.00004760,0.00000864,0.00001409,0.00117754,0.00015370,-0.00006666,
 -0.00042926,-0.00048924,-0.00223784,0.02534123,0.05121884,-0.00000611,
 0.00008906,0.00014722,0.00001696,-0.00054875,-0.00100819,0.00007931,-0
 .00001020,0.00025067,-0.00014623,0.00040740,-0.00070006,-0.00140752,0.
 00522641,0.00376855,-0.01489269,-0.00194282,0.00460634,0.01653664,0.01
 227783,-0.04581791,0.01677152,0.00039020,0.00299725,0.00090690,0.00579
 016,0.00329935,0.00000246,-0.00002687,-0.00000674,0.00006063,0.0000048
 2,-0.00001186,-0.00004357,-0.00005297,-0.00003294,-0.00077970,-0.00006
 235,0.00010267,0.00027048,-0.00223975,-0.00237230,-0.01785949,-0.01702
 819,0.03707515,-0.00051177,-0.00021380,0.00014278,0.00030591,0.0018602
 5,-0.00123560,-0.00014532,-0.00045891,0.00030569,-0.00525430,-0.002071
 48,0.00141607,-0.00064639,-0.00083590,0.00055684,-0.00053149,-0.002290
 99,0.00154502,0.01178803,-0.01025660,0.00678549,-0.15582464,0.11051761
 ,-0.07305790,-0.01431653,0.02309829,-0.01529400,-0.00012652,0.00010619
 ,-0.00007029,0.00000980,0.00000141,-0.00001893,0.00001013,0.00001779,0
 .00000612,0.00008122,0.00012072,-0.00008457,0.00049437,-0.00059449,0.0
 0039452,0.00084668,0.00040062,-0.00028030,0.16262081,-0.00002769,-0.00
 008037,-0.00012909,-0.00043488,0.00022243,0.00012494,0.00018152,0.0001
 1148,0.00000150,-0.00085721,0.00317605,0.00296538,-0.00083830,-0.00001
 987,-0.00009594,-0.00333389,-0.00037555,0.00483580,0.01618963,-0.01227
 700,0.00973302,0.11026925,-0.18079765,0.09550719,-0.00299350,0.0055659
 5,-0.00197736,0.00000085,-0.00000652,-0.00002327,-0.00002871,0.0000080
 0,-0.00001388,0.00002487,-0.00002138,0.00002724,0.00010837,-0.00038688
 ,-0.00062862,0.00085632,-0.00061989,0.00064093,-0.00022452,-0.00041315
 ,-0.00220270,-0.11914678,0.18667720,0.00001913,-0.00012851,-0.00018947
 ,0.00028925,0.00011785,0.00032927,-0.00011980,0.00000347,0.00011264,0.
 00060933,0.00296913,0.00566087,0.00055843,-0.00009595,-0.00010615,0.00
 223791,0.00483258,0.00366994,-0.01078501,0.00981471,-0.00403953,-0.072
 89289,0.09550642,-0.09976040,0.00204102,-0.00205794,0.00393678,-0.0000
 0030,-0.00002360,-0.00002587,-0.00003902,0.00003967,-0.00001559,0.0000
 4153,-0.00002638,0.00001347,-0.00007637,-0.00062866,-0.00091464,-0.000
 56937,0.00064541,-0.00007826,0.00013503,-0.00220463,-0.00226528,0.0787
 3699,-0.10648715,0.09634960,-0.00001383,-0.00042717,0.00028439,0.00085
 638,0.00115628,-0.00078245,-0.00202077,-0.00066385,0.00044604,0.013837
 82,0.01337172,-0.00891476,-0.00272599,0.00265074,-0.00173487,-0.000882
 32,0.00062374,-0.00041294,-0.00535165,0.00060847,-0.00036403,-0.007766
 12,-0.02384031,0.01587504,-0.11005905,-0.09138728,0.06093335,-0.000005
 54,0.00001322,-0.00000856,0.00010795,-0.00010474,0.00016538,0.00010732
 ,-0.00019315,0.00003200,0.00056489,0.00101855,-0.00067619,0.00009314,-
 0.00008154,0.00005023,-0.00044588,-0.00115830,0.00077070,0.00120001,0.
 00025469,-0.00018586,0.11250364,0.00012945,0.00022536,-0.00003208,-0.0
 0246215,-0.00341328,-0.00021856,-0.00124825,0.00211679,-0.00167303,-0.
 00879119,-0.01318957,0.01136556,0.00344898,0.00020102,0.00369034,0.000
 46270,0.00014163,-0.00036781,0.00024051,0.00333079,0.00288473,0.001033
 43,0.00335476,0.00032921,-0.09020114,-0.21572319,0.11714106,0.00006347
 ,0.00002734,0.00002719,-0.00002429,0.00000674,-0.00004441,-0.00007117,
 0.00008701,0.00001158,-0.00056880,-0.00047511,0.00080510,-0.00008551,-
 0.00036599,-0.00054240,0.00016898,0.00002961,-0.00007129,-0.00025394,-
 0.00076283,-0.00227643,0.09815893,0.22440890,-0.00008542,-0.00003037,0
 .00019812,0.00162158,-0.00022972,-0.00360601,0.00083429,-0.00167485,0.
 00070297,0.00581001,0.01129711,-0.00364715,-0.00226521,0.00369280,0.00
 332513,-0.00030595,-0.00036830,-0.00016419,-0.00011956,0.00288360,0.00
 575841,-0.00065070,0.00040605,0.00358732,0.06014527,0.11714471,-0.1178
 4260,-0.00004194,0.00002734,0.00005052,0.00006698,-0.00002207,0.000072
 37,-0.00000408,-0.00001015,-0.00000727,0.00037842,0.00080020,0.0002012
 3,0.00005287,-0.00054241,-0.00082257,-0.00011113,-0.00006719,-0.000031
 92,0.00015207,-0.00227800,-0.00267738,-0.06547750,-0.13102875,0.114903
 03\\0.00000109,0.00000119,-0.00000101,0.00000011,0.00000167,0.00000010
 ,0.00000093,0.00000019,-0.00000063,0.00000109,-0.00000233,0.00000124,0
 .00000211,0.00000076,-0.00000056,-0.00000506,0.00000240,-0.00000155,0.
 00000083,-0.00000430,0.00000285,0.00000213,0.00000046,-0.00000029,-0.0
 0000238,0.00000077,-0.00000053,-0.00000051,0.00000014,-0.00000011,0.00
 000014,-0.00000020,0.00000015,0.00000023,-0.00000034,0.00000008,-0.000
 00081,0.00000013,-0.00000010,0.00000043,-0.00000097,0.00000064,0.,0.00
 000010,-0.00000007,-0.00000073,-0.00000023,0.00000016,0.00000037,0.000
 00055,-0.00000037\\\@


 NO MATTER HOW THIN YOU SLICE IT, IT'S STILL BALONEY

                                   -- ALFRED E. SMITH
 Job cpu time:       0 days  0 hours  0 minutes 26.7 seconds.
 Elapsed time:       0 days  0 hours  0 minutes 32.1 seconds.
 File lengths (MBytes):  RWF=     50 Int=      0 D2E=      0 Chk=      4 Scr=      1
 Normal termination of Gaussian 16 at Thu Nov 14 16:36:04 2024.
