 Entering Gaussian System, Link 0=g16
 Input=/Volumes/SSD-PSM960U3-UW/CoMFA_calc/KZJRKRQSDZGHEC-UHFFFAOYSA-N/opt0.gjf
 Output=/Volumes/SSD-PSM960U3-UW/CoMFA_calc/KZJRKRQSDZGHEC-UHFFFAOYSA-N/opt0.log
 Initial command:
 /Applications/g16/l1.exe "/Users/mac_poclab/PycharmProjects/CoMFA_model/Gau-92198.inp" -scrdir="/Users/mac_poclab/PycharmProjects/CoMFA_model/"
 Entering Link 1 = /Applications/g16/l1.exe PID=     92199.
  
 Copyright (c) 1988,1990,1992,1993,1995,1998,2003,2009,2016,
            Gaussian, Inc.  All Rights Reserved.
  
 This is part of the Gaussian(R) 16 program.  It is based on
 the Gaussian(R) 09 system (copyright 2009, Gaussian, Inc.),
 the Gaussian(R) 03 system (copyright 2003, Gaussian, Inc.),
 the Gaussian(R) 98 system (copyright 1998, Gaussian, Inc.),
 the Gaussian(R) 94 system (copyright 1995, Gaussian, Inc.),
 the Gaussian 92(TM) system (copyright 1992, Gaussian, Inc.),
 the Gaussian 90(TM) system (copyright 1990, Gaussian, Inc.),
 the Gaussian 88(TM) system (copyright 1988, Gaussian, Inc.),
 the Gaussian 86(TM) system (copyright 1986, Carnegie Mellon
 University), and the Gaussian 82(TM) system (copyright 1983,
 Carnegie Mellon University). Gaussian is a federally registered
 trademark of Gaussian, Inc.
  
 This software contains proprietary and confidential information,
 including trade secrets, belonging to Gaussian, Inc.
  
 This software is provided under written license and may be
 used, copied, transmitted, or stored only in accord with that
 written license.
  
 The following legend is applicable only to US Government
 contracts under FAR:
  
                    RESTRICTED RIGHTS LEGEND
  
 Use, reproduction and disclosure by the US Government is
 subject to restrictions as set forth in subparagraphs (a)
 and (c) of the Commercial Computer Software - Restricted
 Rights clause in FAR 52.227-19.
  
 Gaussian, Inc.
 340 Quinnipiac St., Bldg. 40, Wallingford CT 06492
  
  
 ---------------------------------------------------------------
 Warning -- This program may not be used in any manner that
 competes with the business of Gaussian, Inc. or will provide
 assistance to any competitor of Gaussian, Inc.  The licensee
 of this program is prohibited from giving any competitor of
 Gaussian, Inc. access to this program.  By using this program,
 the user acknowledges that Gaussian, Inc. is engaged in the
 business of creating and licensing software in the field of
 computational chemistry and represents and warrants to the
 licensee that it is not a competitor of Gaussian, Inc. and that
 it will not use this program in any manner prohibited above.
 ---------------------------------------------------------------
  

 Cite this work as:
 Gaussian 16, Revision A.03,
 M. J. Frisch, G. W. Trucks, H. B. Schlegel, G. E. Scuseria, 
 M. A. Robb, J. R. Cheeseman, G. Scalmani, V. Barone, 
 G. A. Petersson, H. Nakatsuji, X. Li, M. Caricato, A. V. Marenich, 
 J. Bloino, B. G. Janesko, R. Gomperts, B. Mennucci, H. P. Hratchian, 
 J. V. Ortiz, A. F. Izmaylov, J. L. Sonnenberg, D. Williams-Young, 
 F. Ding, F. Lipparini, F. Egidi, J. Goings, B. Peng, A. Petrone, 
 T. Henderson, D. Ranasinghe, V. G. Zakrzewski, J. Gao, N. Rega, 
 G. Zheng, W. Liang, M. Hada, M. Ehara, K. Toyota, R. Fukuda, 
 J. Hasegawa, M. Ishida, T. Nakajima, Y. Honda, O. Kitao, H. Nakai, 
 T. Vreven, K. Throssell, J. A. Montgomery, Jr., J. E. Peralta, 
 F. Ogliaro, M. J. Bearpark, J. J. Heyd, E. N. Brothers, K. N. Kudin, 
 V. N. Staroverov, T. A. Keith, R. Kobayashi, J. Normand, 
 K. Raghavachari, A. P. Rendell, J. C. Burant, S. S. Iyengar, 
 J. Tomasi, M. Cossi, J. M. Millam, M. Klene, C. Adamo, R. Cammi, 
 J. W. Ochterski, R. L. Martin, K. Morokuma, O. Farkas, 
 J. B. Foresman, and D. J. Fox, Gaussian, Inc., Wallingford CT, 2016.
 
 ******************************************
 Gaussian 16:  EM64M-G16RevA.03 25-Dec-2016
                15-Nov-2024 
 ******************************************
 %nprocshared=30
 Will use up to   30 processors via shared memory.
 %mem=30GB
 %chk= 0.chk
 -------------------------------
 # freq opt=tight b3lyp 6-31g(d)
 -------------------------------
 1/7=10,18=20,19=15,26=3,38=1/1,3;
 2/9=110,12=2,17=6,18=5,40=1/2;
 3/5=1,6=6,7=1,11=2,25=1,30=1,71=1,74=-5/1,2,3;
 4//1;
 5/5=2,38=5/2;
 6/7=2,8=2,9=2,10=2,28=1/1;
 7//1,2,3,16;
 1/7=10,18=20,19=15,26=3/3(2);
 2/9=110/2;
 99//99;
 2/9=110/2;
 3/5=1,6=6,7=1,11=2,25=1,30=1,71=1,74=-5/1,2,3;
 4/5=5,16=3,69=1/1;
 5/5=2,38=5/2;
 7//1,2,3,16;
 1/7=10,18=20,19=15,26=3/3(-5);
 2/9=110/2;
 6/7=2,8=2,9=2,10=2,19=2,28=1/1;
 99/9=1/99;
 ---------
 good luck
 ---------
 Symbolic Z-matrix:
 Charge =  0 Multiplicity = 1
 O                    -1.89658   0.64299   1.87072 
 C                    -1.63014   0.29589   0.71717 
 C                    -0.19512   0.10849   0.33934 
 C                     0.78344   0.33758   1.31976 
 C                     2.13843   0.17792   1.02288 
 C                     2.52903  -0.21193  -0.25547 
 C                     1.56684  -0.4422   -1.23683 
 C                     0.20857  -0.28354  -0.94416 
 C                    -2.69027   0.04831  -0.34267 
 F                    -3.9593    0.24761   0.10769 
 F                    -2.65572  -1.2274   -0.823 
 F                    -2.54135   0.8632   -1.4258 
 H                     0.49793   0.64311   2.3256 
 H                     2.88725   0.35829   1.79063 
 H                     3.58426  -0.33648  -0.4874 
 H                     1.87528  -0.74675  -2.2348 
 H                    -0.50255  -0.47508  -1.74367 
 

 GradGradGradGradGradGradGradGradGradGradGradGradGradGradGradGradGradGrad
 Berny optimization.
 Initialization pass.
                           ----------------------------
                           !    Initial Parameters    !
                           ! (Angstroms and Degrees)  !
 --------------------------                            --------------------------
 ! Name  Definition              Value          Derivative Info.                !
 --------------------------------------------------------------------------------
 ! R1    R(1,2)                  1.2338         estimate D2E/DX2                !
 ! R2    R(2,3)                  1.4957         estimate D2E/DX2                !
 ! R3    R(2,9)                  1.5194         estimate D2E/DX2                !
 ! R4    R(3,4)                  1.404          estimate D2E/DX2                !
 ! R5    R(3,8)                  1.4014         estimate D2E/DX2                !
 ! R6    R(4,5)                  1.3963         estimate D2E/DX2                !
 ! R7    R(4,13)                 1.0893         estimate D2E/DX2                !
 ! R8    R(5,6)                  1.3924         estimate D2E/DX2                !
 ! R9    R(5,14)                 1.0875         estimate D2E/DX2                !
 ! R10   R(6,7)                  1.3935         estimate D2E/DX2                !
 ! R11   R(6,15)                 1.0876         estimate D2E/DX2                !
 ! R12   R(7,8)                  1.3985         estimate D2E/DX2                !
 ! R13   R(7,16)                 1.088          estimate D2E/DX2                !
 ! R14   R(8,17)                 1.087          estimate D2E/DX2                !
 ! R15   R(9,10)                 1.3612         estimate D2E/DX2                !
 ! R16   R(9,11)                 1.3636         estimate D2E/DX2                !
 ! R17   R(9,12)                 1.3636         estimate D2E/DX2                !
 ! A1    A(1,2,3)              118.5961         estimate D2E/DX2                !
 ! A2    A(1,2,9)              123.1872         estimate D2E/DX2                !
 ! A3    A(3,2,9)              118.2168         estimate D2E/DX2                !
 ! A4    A(2,3,4)              118.1541         estimate D2E/DX2                !
 ! A5    A(2,3,8)              122.8722         estimate D2E/DX2                !
 ! A6    A(4,3,8)              118.9736         estimate D2E/DX2                !
 ! A7    A(3,4,5)              120.612          estimate D2E/DX2                !
 ! A8    A(3,4,13)             120.5231         estimate D2E/DX2                !
 ! A9    A(5,4,13)             118.8649         estimate D2E/DX2                !
 ! A10   A(4,5,6)              119.9636         estimate D2E/DX2                !
 ! A11   A(4,5,14)             119.9415         estimate D2E/DX2                !
 ! A12   A(6,5,14)             120.0948         estimate D2E/DX2                !
 ! A13   A(5,6,7)              119.9422         estimate D2E/DX2                !
 ! A14   A(5,6,15)             120.0022         estimate D2E/DX2                !
 ! A15   A(7,6,15)             120.0556         estimate D2E/DX2                !
 ! A16   A(6,7,8)              120.298          estimate D2E/DX2                !
 ! A17   A(6,7,16)             119.7654         estimate D2E/DX2                !
 ! A18   A(8,7,16)             119.9366         estimate D2E/DX2                !
 ! A19   A(3,8,7)              120.2105         estimate D2E/DX2                !
 ! A20   A(3,8,17)             122.3075         estimate D2E/DX2                !
 ! A21   A(7,8,17)             117.4819         estimate D2E/DX2                !
 ! A22   A(2,9,10)             113.3183         estimate D2E/DX2                !
 ! A23   A(2,9,11)             112.3638         estimate D2E/DX2                !
 ! A24   A(2,9,12)             112.3652         estimate D2E/DX2                !
 ! A25   A(10,9,11)            106.0892         estimate D2E/DX2                !
 ! A26   A(10,9,12)            106.0883         estimate D2E/DX2                !
 ! A27   A(11,9,12)            106.0531         estimate D2E/DX2                !
 ! D1    D(1,2,3,4)              0.0012         estimate D2E/DX2                !
 ! D2    D(1,2,3,8)           -179.9983         estimate D2E/DX2                !
 ! D3    D(9,2,3,4)           -179.9977         estimate D2E/DX2                !
 ! D4    D(9,2,3,8)              0.0029         estimate D2E/DX2                !
 ! D5    D(1,2,9,10)             0.0042         estimate D2E/DX2                !
 ! D6    D(1,2,9,11)          -120.239          estimate D2E/DX2                !
 ! D7    D(1,2,9,12)           120.2475         estimate D2E/DX2                !
 ! D8    D(3,2,9,10)          -179.997          estimate D2E/DX2                !
 ! D9    D(3,2,9,11)            59.7598         estimate D2E/DX2                !
 ! D10   D(3,2,9,12)           -59.7537         estimate D2E/DX2                !
 ! D11   D(2,3,4,5)           -179.9989         estimate D2E/DX2                !
 ! D12   D(2,3,4,13)             0.001          estimate D2E/DX2                !
 ! D13   D(8,3,4,5)              0.0005         estimate D2E/DX2                !
 ! D14   D(8,3,4,13)          -179.9995         estimate D2E/DX2                !
 ! D15   D(2,3,8,7)           -179.9993         estimate D2E/DX2                !
 ! D16   D(2,3,8,17)             0.0009         estimate D2E/DX2                !
 ! D17   D(4,3,8,7)              0.0013         estimate D2E/DX2                !
 ! D18   D(4,3,8,17)          -179.9986         estimate D2E/DX2                !
 ! D19   D(3,4,5,6)             -0.0016         estimate D2E/DX2                !
 ! D20   D(3,4,5,14)           179.9986         estimate D2E/DX2                !
 ! D21   D(13,4,5,6)           179.9985         estimate D2E/DX2                !
 ! D22   D(13,4,5,14)           -0.0013         estimate D2E/DX2                !
 ! D23   D(4,5,6,7)              0.0007         estimate D2E/DX2                !
 ! D24   D(4,5,6,15)          -179.9999         estimate D2E/DX2                !
 ! D25   D(14,5,6,7)          -179.9995         estimate D2E/DX2                !
 ! D26   D(14,5,6,15)           -0.0001         estimate D2E/DX2                !
 ! D27   D(5,6,7,8)              0.0011         estimate D2E/DX2                !
 ! D28   D(5,6,7,16)          -179.9992         estimate D2E/DX2                !
 ! D29   D(15,6,7,8)          -179.9983         estimate D2E/DX2                !
 ! D30   D(15,6,7,16)            0.0014         estimate D2E/DX2                !
 ! D31   D(6,7,8,3)             -0.0021         estimate D2E/DX2                !
 ! D32   D(6,7,8,17)           179.9977         estimate D2E/DX2                !
 ! D33   D(16,7,8,3)           179.9982         estimate D2E/DX2                !
 ! D34   D(16,7,8,17)           -0.0019         estimate D2E/DX2                !
 --------------------------------------------------------------------------------
 Trust Radius=3.00D-01 FncErr=1.00D-07 GrdErr=1.00D-06 EigMax=2.50D+02 EigMin=1.00D-04
 Number of steps in this run=     88 maximum allowed number of steps=    102.
 GradGradGradGradGradGradGradGradGradGradGradGradGradGradGradGradGradGrad

                          Input orientation:                          
 ---------------------------------------------------------------------
 Center     Atomic      Atomic             Coordinates (Angstroms)
 Number     Number       Type             X           Y           Z
 ---------------------------------------------------------------------
      1          8           0       -1.896575    0.642989    1.870724
      2          6           0       -1.630138    0.295887    0.717173
      3          6           0       -0.195121    0.108494    0.339339
      4          6           0        0.783435    0.337578    1.319760
      5          6           0        2.138431    0.177919    1.022877
      6          6           0        2.529028   -0.211934   -0.255474
      7          6           0        1.566842   -0.442200   -1.236828
      8          6           0        0.208570   -0.283536   -0.944157
      9          6           0       -2.690268    0.048314   -0.342674
     10          9           0       -3.959301    0.247610    0.107691
     11          9           0       -2.655721   -1.227404   -0.822997
     12          9           0       -2.541349    0.863195   -1.425796
     13          1           0        0.497934    0.643105    2.325599
     14          1           0        2.887247    0.358291    1.790633
     15          1           0        3.584255   -0.336481   -0.487400
     16          1           0        1.875280   -0.746752   -2.234799
     17          1           0       -0.502548   -0.475076   -1.743670
 ---------------------------------------------------------------------
                    Distance matrix (angstroms):
                    1          2          3          4          5
     1  O    0.000000
     2  C    1.233754   0.000000
     3  C    2.350696   1.495710   0.000000
     4  C    2.753051   2.488008   1.404022   0.000000
     5  C    4.149266   3.782788   2.432593   1.396297   0.000000
     6  C    4.983731   4.301463   2.806682   2.414626   1.392384
     7  C    4.778051   3.818845   2.427361   2.785305   2.411955
     8  C    3.635057   2.544916   1.401434   2.416935   2.794016
     9  C    2.425431   1.519356   2.587377   3.861861   5.019747
    10  F    2.742161   2.408070   3.773866   4.895993   6.166422
    11  F    3.366126   2.396739   3.031534   4.343774   5.325981
    12  F    3.366195   2.396760   3.031511   4.343793   5.325969
    13  H    2.437331   2.690034   2.170567   1.089298   2.145860
    14  H    4.792955   4.643595   3.416086   2.155963   1.087524
    15  H    6.046454   5.388950   3.894250   3.400702   2.153126
    16  H    5.745745   4.699914   3.412359   3.873343   3.396574
    17  H    4.032025   2.814532   2.184947   3.420345   3.880072
                    6          7          8          9         10
     6  C    0.000000
     7  C    1.393514   0.000000
     8  C    2.421557   1.398475   0.000000
     9  C    5.226508   4.377568   2.979122   0.000000
    10  F    6.514713   5.729034   4.331241   1.361247   0.000000
    11  F    5.313651   4.314839   3.018233   1.363584   2.177422
    12  F    5.313594   4.314742   3.018116   1.363584   2.177410
    13  H    3.393873   3.874447   3.410821   4.199773   4.994244
    14  H    2.154073   3.398496   3.881537   5.979612   7.051224
    15  H    1.087569   2.154710   3.406858   6.287977   7.589501
    16  H    2.152009   1.088040   2.158297   5.005646   6.365403
    17  H    3.387392   2.130808   1.087013   2.650065   3.987349
                   11         12         13         14         15
    11  F    0.000000
    12  F    2.178773   0.000000
    13  H    4.833012   4.833078   0.000000
    14  H    6.330086   6.330087   2.464980   0.000000
    15  H    6.312184   6.312118   4.289281   2.481524   0.000000
    16  H    4.770134   4.770013   4.962461   4.295265   2.478371
    17  H    2.459632   2.459415   4.337078   4.967546   4.277778
                   16         17
    16  H    0.000000
    17  H    2.443170   0.000000
 Stoichiometry    C8H5F3O
 Framework group  C1[X(C8H5F3O)]
 Deg. of freedom    45
 Full point group                 C1      NOp   1
 Largest Abelian subgroup         C1      NOp   1
 Largest concise Abelian subgroup C1      NOp   1
                         Standard orientation:                         
 ---------------------------------------------------------------------
 Center     Atomic      Atomic             Coordinates (Angstroms)
 Number     Number       Type             X           Y           Z
 ---------------------------------------------------------------------
      1          8           0       -0.955297    2.031472   -0.000034
      2          6           0       -0.757136    0.813736   -0.000023
      3          6           0        0.654055    0.318067   -0.000009
      4          6           0        1.689333    1.266474    0.000016
      5          6           0        3.025360    0.860672    0.000006
      6          6           0        3.340191   -0.495652    0.000005
      7          6           0        2.321211   -1.446209   -0.000002
      8          6           0        0.981661   -1.044537   -0.000031
      9          6           0       -1.878579   -0.211354    0.000005
     10          9           0       -3.119694    0.347775   -0.000077
     11          9           0       -1.833041   -1.030128    1.089452
     12          9           0       -1.832991   -1.030288   -1.089321
     13          1           0        1.463424    2.332089    0.000041
     14          1           0        3.818613    1.604620    0.000003
     15          1           0        4.380603   -0.812429   -0.000001
     16          1           0        2.570497   -2.505307    0.000009
     17          1           0        0.224193   -1.824177   -0.000074
 ---------------------------------------------------------------------
 Rotational constants (GHZ):           2.0126891           0.6150966           0.5143621
 Standard basis: 6-31G(d) (6D, 7F)
 There are   190 symmetry adapted cartesian basis functions of A   symmetry.
 There are   190 symmetry adapted basis functions of A   symmetry.
   190 basis functions,   356 primitive gaussians,   190 cartesian basis functions
    44 alpha electrons       44 beta electrons
       nuclear repulsion energy       695.6355962880 Hartrees.
 NAtoms=   17 NActive=   17 NUniq=   17 SFac= 1.00D+00 NAtFMM=   60 NAOKFM=F Big=F
 Integral buffers will be    131072 words long.
 Raffenetti 2 integral format.
 Two-electron integral symmetry is turned on.
 One-electron integrals computed using PRISM.
 NBasis=   190 RedAO= T EigKep=  4.65D-04  NBF=   190
 NBsUse=   190 1.00D-06 EigRej= -1.00D+00 NBFU=   190
 ExpMin= 1.61D-01 ExpMax= 7.00D+03 ExpMxC= 1.05D+03 IAcc=3 IRadAn=         5 AccDes= 0.00D+00
 Harris functional with IExCor=  402 and IRadAn=       5 diagonalized for initial guess.
 HarFok:  IExCor=  402 AccDes= 0.00D+00 IRadAn=         5 IDoV= 1 UseB2=F ITyADJ=14
 ICtDFT=  3500011 ScaDFX=  1.000000  1.000000  1.000000  1.000000
 FoFCou: FMM=F IPFlag=           0 FMFlag=      100000 FMFlg1=           0
         NFxFlg=           0 DoJE=T BraDBF=F KetDBF=T FulRan=T
         wScrn=  0.000000 ICntrl=       500 IOpCl=  0 I1Cent=   200000004 NGrid=           0
         NMat0=    1 NMatS0=      1 NMatT0=    0 NMatD0=    1 NMtDS0=    0 NMtDT0=    0
 Petite list used in FoFCou.
 Requested convergence on RMS density matrix=1.00D-08 within 128 cycles.
 Requested convergence on MAX density matrix=1.00D-06.
 Requested convergence on             energy=1.00D-06.
 No special actions if energy rises.
 Integral accuracy reduced to 1.0D-05 until final iterations.
 Initial convergence to 1.0D-05 achieved.  Increase integral accuracy.
 SCF Done:  E(RB3LYP) =  -682.598810803     A.U. after   15 cycles
            NFock= 15  Conv=0.44D-08     -V/T= 2.0084

 **********************************************************************

            Population analysis using the SCF density.

 **********************************************************************

 Orbital symmetries:
       Occupied  (A) (A) (A) (A) (A) (A) (A) (A) (A) (A) (A) (A)
                 (A) (A) (A) (A) (A) (A) (A) (A) (A) (A) (A) (A)
                 (A) (A) (A) (A) (A) (A) (A) (A) (A) (A) (A) (A)
                 (A) (A) (A) (A) (A) (A) (A) (A)
       Virtual   (A) (A) (A) (A) (A) (A) (A) (A) (A) (A) (A) (A)
                 (A) (A) (A) (A) (A) (A) (A) (A) (A) (A) (A) (A)
                 (A) (A) (A) (A) (A) (A) (A) (A) (A) (A) (A) (A)
                 (A) (A) (A) (A) (A) (A) (A) (A) (A) (A) (A) (A)
                 (A) (A) (A) (A) (A) (A) (A) (A) (A) (A) (A) (A)
                 (A) (A) (A) (A) (A) (A) (A) (A) (A) (A) (A) (A)
                 (A) (A) (A) (A) (A) (A) (A) (A) (A) (A) (A) (A)
                 (A) (A) (A) (A) (A) (A) (A) (A) (A) (A) (A) (A)
                 (A) (A) (A) (A) (A) (A) (A) (A) (A) (A) (A) (A)
                 (A) (A) (A) (A) (A) (A) (A) (A) (A) (A) (A) (A)
                 (A) (A) (A) (A) (A) (A) (A) (A) (A) (A) (A) (A)
                 (A) (A) (A) (A) (A) (A) (A) (A) (A) (A) (A) (A)
                 (A) (A)
 The electronic state is 1-A.
 Alpha  occ. eigenvalues --  -24.73926 -24.73925 -24.73071 -19.17398 -10.44832
 Alpha  occ. eigenvalues --  -10.31290 -10.22320 -10.21752 -10.21583 -10.21413
 Alpha  occ. eigenvalues --  -10.21137 -10.21089  -1.30883  -1.22440  -1.21840
 Alpha  occ. eigenvalues --   -1.06337  -0.87750  -0.79271  -0.76602  -0.74583
 Alpha  occ. eigenvalues --   -0.65798  -0.62998  -0.61150  -0.59084  -0.58718
 Alpha  occ. eigenvalues --   -0.55264  -0.51251  -0.47671  -0.47034  -0.46742
 Alpha  occ. eigenvalues --   -0.45908  -0.45529  -0.43953  -0.43870  -0.42400
 Alpha  occ. eigenvalues --   -0.41410  -0.41303  -0.40667  -0.37564  -0.37479
 Alpha  occ. eigenvalues --   -0.36351  -0.28515  -0.27583  -0.27058
 Alpha virt. eigenvalues --   -0.08992  -0.02117   0.00745   0.08065   0.10494
 Alpha virt. eigenvalues --    0.12995   0.13589   0.14259   0.17352   0.18065
 Alpha virt. eigenvalues --    0.19763   0.20143   0.22481   0.26263   0.28310
 Alpha virt. eigenvalues --    0.28828   0.29908   0.35759   0.37038   0.45581
 Alpha virt. eigenvalues --    0.48082   0.49038   0.51418   0.51942   0.52388
 Alpha virt. eigenvalues --    0.54729   0.55131   0.56179   0.57716   0.58609
 Alpha virt. eigenvalues --    0.59054   0.59802   0.60522   0.62761   0.65529
 Alpha virt. eigenvalues --    0.65691   0.68945   0.70925   0.76287   0.80201
 Alpha virt. eigenvalues --    0.80999   0.81199   0.82902   0.85003   0.85914
 Alpha virt. eigenvalues --    0.89781   0.91912   0.92757   0.97273   0.98280
 Alpha virt. eigenvalues --    1.00723   1.03976   1.06450   1.06938   1.09448
 Alpha virt. eigenvalues --    1.10991   1.12743   1.13621   1.17236   1.22080
 Alpha virt. eigenvalues --    1.23336   1.24198   1.25901   1.30986   1.31875
 Alpha virt. eigenvalues --    1.33729   1.35004   1.37820   1.39256   1.40601
 Alpha virt. eigenvalues --    1.41093   1.42614   1.44540   1.45569   1.47075
 Alpha virt. eigenvalues --    1.48938   1.48987   1.59412   1.60335   1.64286
 Alpha virt. eigenvalues --    1.64823   1.70111   1.73958   1.76941   1.78623
 Alpha virt. eigenvalues --    1.80003   1.82001   1.84212   1.84591   1.87823
 Alpha virt. eigenvalues --    1.90684   1.91667   1.94196   1.95009   1.95420
 Alpha virt. eigenvalues --    1.97476   1.99296   2.02082   2.04490   2.04716
 Alpha virt. eigenvalues --    2.05778   2.10787   2.12276   2.12280   2.15154
 Alpha virt. eigenvalues --    2.16005   2.17603   2.17990   2.26611   2.27686
 Alpha virt. eigenvalues --    2.28479   2.34362   2.38234   2.44633   2.46880
 Alpha virt. eigenvalues --    2.50198   2.57340   2.57545   2.60839   2.62683
 Alpha virt. eigenvalues --    2.69548   2.72424   2.73275   2.75878   2.76482
 Alpha virt. eigenvalues --    2.79762   2.90563   2.92689   2.99873   3.01273
 Alpha virt. eigenvalues --    3.01636   3.12611   3.17485   3.40198   3.89522
 Alpha virt. eigenvalues --    4.06426   4.09113   4.11271   4.25982   4.29243
 Alpha virt. eigenvalues --    4.32225   4.33926   4.52681   4.70742   4.85966
 Alpha virt. eigenvalues --    5.46511
          Condensed to atoms (all electrons):
               1          2          3          4          5          6
     1  O    8.033381   0.538490  -0.095618  -0.001905   0.001194  -0.000016
     2  C    0.538490   4.903904   0.227570  -0.032438   0.007149  -0.000059
     3  C   -0.095618   0.227570   5.042961   0.488660  -0.017324  -0.037787
     4  C   -0.001905  -0.032438   0.488660   5.006322   0.496357  -0.028931
     5  C    0.001194   0.007149  -0.017324   0.496357   4.897099   0.533731
     6  C   -0.000016  -0.000059  -0.037787  -0.028931   0.533731   4.845618
     7  C   -0.000075   0.005434  -0.012621  -0.043046  -0.026232   0.546010
     8  C    0.004566  -0.055790   0.486801  -0.071606  -0.042657  -0.032668
     9  C   -0.056646   0.217488  -0.068657   0.007852  -0.000060  -0.000009
    10  F   -0.001331  -0.021621   0.002973  -0.000027  -0.000000   0.000000
    11  F    0.000333  -0.031758  -0.003301  -0.000086  -0.000000  -0.000000
    12  F    0.000333  -0.031751  -0.003306  -0.000086  -0.000000  -0.000000
    13  H    0.013789  -0.012290  -0.037406   0.357279  -0.043068   0.004654
    14  H    0.000004  -0.000139   0.003714  -0.039366   0.362327  -0.042867
    15  H    0.000000   0.000007   0.000519   0.004589  -0.042625   0.360543
    16  H    0.000000  -0.000122   0.003618   0.000693   0.004617  -0.042258
    17  H    0.000015  -0.014872  -0.038274   0.005413   0.000184   0.004813
               7          8          9         10         11         12
     1  O   -0.000075   0.004566  -0.056646  -0.001331   0.000333   0.000333
     2  C    0.005434  -0.055790   0.217488  -0.021621  -0.031758  -0.031751
     3  C   -0.012621   0.486801  -0.068657   0.002973  -0.003301  -0.003306
     4  C   -0.043046  -0.071606   0.007852  -0.000027  -0.000086  -0.000086
     5  C   -0.026232  -0.042657  -0.000060  -0.000000  -0.000000  -0.000000
     6  C    0.546010  -0.032668  -0.000009   0.000000  -0.000000  -0.000000
     7  C    4.888365   0.499173  -0.000424   0.000000   0.000226   0.000226
     8  C    0.499173   5.059473  -0.003191   0.000068   0.001305   0.001306
     9  C   -0.000424  -0.003191   4.295144   0.284638   0.252363   0.252352
    10  F    0.000000   0.000068   0.284638   9.070135  -0.036596  -0.036597
    11  F    0.000226   0.001305   0.252363  -0.036596   9.115728  -0.036963
    12  F    0.000226   0.001306   0.252352  -0.036597  -0.036963   9.115732
    13  H    0.000108   0.006015   0.000352   0.000001  -0.000004  -0.000004
    14  H    0.004542   0.000763   0.000001  -0.000000  -0.000000  -0.000000
    15  H   -0.042063   0.004956  -0.000000   0.000000   0.000000   0.000000
    16  H    0.359846  -0.036892   0.000011  -0.000000  -0.000002  -0.000002
    17  H   -0.041020   0.347034   0.010845   0.000084   0.006559   0.006565
              13         14         15         16         17
     1  O    0.013789   0.000004   0.000000   0.000000   0.000015
     2  C   -0.012290  -0.000139   0.000007  -0.000122  -0.014872
     3  C   -0.037406   0.003714   0.000519   0.003618  -0.038274
     4  C    0.357279  -0.039366   0.004589   0.000693   0.005413
     5  C   -0.043068   0.362327  -0.042625   0.004617   0.000184
     6  C    0.004654  -0.042867   0.360543  -0.042258   0.004813
     7  C    0.000108   0.004542  -0.042063   0.359846  -0.041020
     8  C    0.006015   0.000763   0.004956  -0.036892   0.347034
     9  C    0.000352   0.000001  -0.000000   0.000011   0.010845
    10  F    0.000001  -0.000000   0.000000  -0.000000   0.000084
    11  F   -0.000004  -0.000000   0.000000  -0.000002   0.006559
    12  F   -0.000004  -0.000000   0.000000  -0.000002   0.006565
    13  H    0.544874  -0.004984  -0.000157   0.000014  -0.000113
    14  H   -0.004984   0.575805  -0.005365  -0.000176   0.000015
    15  H   -0.000157  -0.005365   0.580142  -0.005417  -0.000160
    16  H    0.000014  -0.000176  -0.005417   0.576755  -0.005520
    17  H   -0.000113   0.000015  -0.000160  -0.005520   0.559090
 Mulliken charges:
               1
     1  O   -0.436513
     2  C    0.300800
     3  C    0.057478
     4  C   -0.149676
     5  C   -0.130691
     6  C   -0.110773
     7  C   -0.138450
     8  C   -0.168657
     9  C    0.807942
    10  F   -0.261726
    11  F   -0.267802
    12  F   -0.267803
    13  H    0.170940
    14  H    0.145727
    15  H    0.145030
    16  H    0.144833
    17  H    0.159341
 Sum of Mulliken charges =  -0.00000
 Mulliken charges with hydrogens summed into heavy atoms:
               1
     1  O   -0.436513
     2  C    0.300800
     3  C    0.057478
     4  C    0.021264
     5  C    0.015036
     6  C    0.034257
     7  C    0.006383
     8  C   -0.009315
     9  C    0.807942
    10  F   -0.261726
    11  F   -0.267802
    12  F   -0.267803
 Electronic spatial extent (au):  <R**2>=           2052.2829
 Charge=             -0.0000 electrons
 Dipole moment (field-independent basis, Debye):
    X=              3.4131    Y=             -1.4718    Z=             -0.0000  Tot=              3.7169
 Quadrupole moment (field-independent basis, Debye-Ang):
   XX=            -60.3791   YY=            -65.2543   ZZ=            -67.2163
   XY=              1.6367   XZ=              0.0000   YZ=              0.0002
 Traceless Quadrupole moment (field-independent basis, Debye-Ang):
   XX=              3.9041   YY=             -0.9710   ZZ=             -2.9331
   XY=              1.6367   XZ=              0.0000   YZ=              0.0002
 Octapole moment (field-independent basis, Debye-Ang**2):
  XXX=             -7.7287  YYY=            -19.5946  ZZZ=              0.0000  XYY=             -0.6399
  XXY=             -4.1963  XXZ=              0.0002  XZZ=            -24.4487  YZZ=              0.5327
  YYZ=              0.0006  XYZ=             -0.0001
 Hexadecapole moment (field-independent basis, Debye-Ang**3):
 XXXX=          -1640.6767 YYYY=           -521.8025 ZZZZ=           -124.2702 XXXY=             15.9682
 XXXZ=             -0.0011 YYYX=             26.1175 YYYZ=              0.0008 ZZZX=              0.0002
 ZZZY=             -0.0002 XXYY=           -361.4769 XXZZ=           -335.2825 YYZZ=           -112.1431
 XXYZ=              0.0001 YYXZ=             -0.0002 ZZXY=              2.4284
 N-N= 6.956355962880D+02 E-N=-2.995155172397D+03  KE= 6.769356508248D+02
 Calling FoFJK, ICntrl=      2127 FMM=F ISym2X=0 I1Cent= 0 IOpClX= 0 NMat=1 NMatS=1 NMatT=0.
 ***** Axes restored to original set *****
 -------------------------------------------------------------------
 Center     Atomic                   Forces (Hartrees/Bohr)
 Number     Number              X              Y              Z
 -------------------------------------------------------------------
      1        8          -0.014128841   -0.007876317   -0.030002931
      2        6           0.030478356    0.009411191    0.038426656
      3        6          -0.007420556   -0.001380808   -0.006201066
      4        6           0.007930776    0.001391347    0.006331057
      5        6          -0.005748417    0.001433090    0.003882950
      6        6           0.002938701   -0.001011274   -0.002952790
      7        6          -0.002833062   -0.000152366   -0.001068371
      8        6           0.007216740   -0.003099950   -0.009380420
      9        6          -0.044288351   -0.003733640   -0.021350344
     10        9           0.020095522   -0.000478524    0.002158348
     11        9           0.006642861    0.007527461    0.008461632
     12        9           0.006094797   -0.002509124    0.011355415
     13        1          -0.003172736   -0.001077090   -0.004340956
     14        1          -0.001210198    0.000002422   -0.000219350
     15        1          -0.000519239   -0.000008237   -0.000124708
     16        1          -0.001316826    0.000340142    0.000926772
     17        1          -0.000759527    0.001221676    0.004098106
 -------------------------------------------------------------------
 Cartesian Forces:  Max     0.044288351 RMS     0.011981917

 GradGradGradGradGradGradGradGradGradGradGradGradGradGradGradGradGradGrad
 Berny optimization.
 FormGI is forming the generalized inverse of G from B-inverse, IUseBI=4.
 Internal  Forces:  Max     0.027216658 RMS     0.006564933
 Search for a local minimum.
 Step number   1 out of a maximum of   88
 All quantities printed in internal units (Hartrees-Bohrs-Radians)
 Mixed Optimization -- RFO/linear search
 Second derivative matrix not updated -- first step.
 ITU=  0
     Eigenvalues ---    0.00510   0.00628   0.00823   0.01673   0.02061
     Eigenvalues ---    0.02086   0.02090   0.02120   0.02141   0.02162
     Eigenvalues ---    0.02169   0.02182   0.10277   0.10476   0.16000
     Eigenvalues ---    0.16000   0.16000   0.16000   0.16000   0.22000
     Eigenvalues ---    0.22000   0.23476   0.25000   0.25000   0.25000
     Eigenvalues ---    0.25000   0.25000   0.25000   0.30429   0.32832
     Eigenvalues ---    0.34894   0.35040   0.35095   0.35100   0.35160
     Eigenvalues ---    0.41636   0.41894   0.45343   0.46059   0.46133
     Eigenvalues ---    0.46705   0.52230   0.52230   0.52696   0.89540
 RFO step:  Lambda=-9.78657653D-03 EMin= 5.09900331D-03
 Linear search not attempted -- first point.
 Iteration  1 RMS(Cart)=  0.02975739 RMS(Int)=  0.00106017
 Iteration  2 RMS(Cart)=  0.00103221 RMS(Int)=  0.00019731
 Iteration  3 RMS(Cart)=  0.00000080 RMS(Int)=  0.00019730
 Variable       Old X    -DE/DX   Delta X   Delta X   Delta X     New X
                                 (Linear)    (Quad)   (Total)
    R1        2.33146  -0.02722   0.00000  -0.03007  -0.03007   2.30139
    R2        2.82648  -0.00212   0.00000  -0.00626  -0.00626   2.82023
    R3        2.87117   0.00742   0.00000   0.02363   0.02363   2.89480
    R4        2.65322   0.00004   0.00000  -0.00011  -0.00012   2.65310
    R5        2.64833   0.00428   0.00000   0.00912   0.00912   2.65745
    R6        2.63862  -0.00478   0.00000  -0.01021  -0.01021   2.62841
    R7        2.05847  -0.00348   0.00000  -0.00970  -0.00970   2.04878
    R8        2.63122   0.00563   0.00000   0.01186   0.01186   2.64308
    R9        2.05512  -0.00099   0.00000  -0.00274  -0.00274   2.05238
   R10        2.63336   0.00204   0.00000   0.00447   0.00447   2.63783
   R11        2.05521  -0.00048   0.00000  -0.00132  -0.00132   2.05389
   R12        2.64274  -0.00381   0.00000  -0.00805  -0.00805   2.63469
   R13        2.05610  -0.00132   0.00000  -0.00366  -0.00366   2.05244
   R14        2.05416  -0.00273   0.00000  -0.00756  -0.00756   2.04660
   R15        2.57238  -0.01809   0.00000  -0.03370  -0.03370   2.53868
   R16        2.57680  -0.00986   0.00000  -0.01852  -0.01852   2.55828
   R17        2.57680  -0.00985   0.00000  -0.01852  -0.01852   2.55828
    A1        2.06989   0.02347   0.00000   0.09036   0.09036   2.16025
    A2        2.15002  -0.02437   0.00000  -0.09379  -0.09379   2.05623
    A3        2.06327   0.00089   0.00000   0.00344   0.00344   2.06671
    A4        2.06218  -0.00394   0.00000  -0.01492  -0.01492   2.04726
    A5        2.14452   0.00272   0.00000   0.01068   0.01068   2.15521
    A6        2.07648   0.00122   0.00000   0.00424   0.00424   2.08072
    A7        2.10508  -0.00078   0.00000  -0.00388  -0.00389   2.10119
    A8        2.10352  -0.00397   0.00000  -0.02375  -0.02375   2.07978
    A9        2.07458   0.00475   0.00000   0.02763   0.02763   2.10222
   A10        2.09376   0.00049   0.00000   0.00224   0.00223   2.09599
   A11        2.09337  -0.00100   0.00000  -0.00555  -0.00554   2.08783
   A12        2.09605   0.00051   0.00000   0.00331   0.00331   2.09936
   A13        2.09339  -0.00006   0.00000   0.00045   0.00045   2.09384
   A14        2.09443   0.00028   0.00000   0.00125   0.00125   2.09568
   A15        2.09537  -0.00022   0.00000  -0.00170  -0.00170   2.09367
   A16        2.09960  -0.00088   0.00000  -0.00315  -0.00315   2.09644
   A17        2.09030   0.00145   0.00000   0.00755   0.00755   2.09785
   A18        2.09329  -0.00057   0.00000  -0.00439  -0.00439   2.08889
   A19        2.09807   0.00001   0.00000   0.00011   0.00012   2.09819
   A20        2.13467  -0.00347   0.00000  -0.02048  -0.02048   2.11418
   A21        2.05045   0.00346   0.00000   0.02037   0.02037   2.07081
   A22        1.97778  -0.01038   0.00000  -0.03935  -0.04004   1.93774
   A23        1.96112  -0.01000   0.00000  -0.03880  -0.03954   1.92158
   A24        1.96114  -0.01000   0.00000  -0.03881  -0.03954   1.92160
   A25        1.85161   0.01156   0.00000   0.04503   0.04436   1.89597
   A26        1.85159   0.01156   0.00000   0.04504   0.04437   1.89596
   A27        1.85098   0.01063   0.00000   0.03981   0.03906   1.89003
    D1        0.00002  -0.00000   0.00000  -0.00002  -0.00002  -0.00000
    D2       -3.14156  -0.00000   0.00000  -0.00003  -0.00003   3.14159
    D3       -3.14155   0.00000   0.00000  -0.00001  -0.00001  -3.14156
    D4        0.00005  -0.00000   0.00000  -0.00003  -0.00002   0.00003
    D5        0.00007  -0.00000   0.00000  -0.00003  -0.00003   0.00004
    D6       -2.09857  -0.00019   0.00000  -0.00171  -0.00167  -2.10023
    D7        2.09871   0.00019   0.00000   0.00165   0.00161   2.10033
    D8       -3.14154  -0.00000   0.00000  -0.00004  -0.00004  -3.14158
    D9        1.04300  -0.00019   0.00000  -0.00171  -0.00167   1.04133
   D10       -1.04290   0.00019   0.00000   0.00165   0.00161  -1.04129
   D11       -3.14157  -0.00000   0.00000  -0.00002  -0.00002  -3.14159
   D12        0.00002  -0.00000   0.00000  -0.00001  -0.00001   0.00001
   D13        0.00001  -0.00000   0.00000  -0.00000  -0.00000   0.00001
   D14       -3.14158   0.00000   0.00000   0.00000   0.00000  -3.14158
   D15       -3.14158  -0.00000   0.00000  -0.00001  -0.00001  -3.14159
   D16        0.00002  -0.00000   0.00000  -0.00000  -0.00000   0.00001
   D17        0.00002  -0.00000   0.00000  -0.00002  -0.00002   0.00000
   D18       -3.14157  -0.00000   0.00000  -0.00002  -0.00002  -3.14158
   D19       -0.00003   0.00000   0.00000   0.00002   0.00002  -0.00001
   D20        3.14157   0.00000   0.00000   0.00001   0.00001   3.14158
   D21        3.14157   0.00000   0.00000   0.00001   0.00001   3.14158
   D22       -0.00002   0.00000   0.00000   0.00001   0.00001  -0.00001
   D23        0.00001  -0.00000   0.00000  -0.00001  -0.00001   0.00000
   D24       -3.14159  -0.00000   0.00000  -0.00000  -0.00000   3.14159
   D25       -3.14158  -0.00000   0.00000  -0.00001  -0.00001  -3.14159
   D26       -0.00000   0.00000   0.00000   0.00000   0.00000   0.00000
   D27        0.00002  -0.00000   0.00000  -0.00001  -0.00001   0.00001
   D28       -3.14158  -0.00000   0.00000  -0.00000  -0.00000  -3.14158
   D29       -3.14156  -0.00000   0.00000  -0.00002  -0.00002  -3.14158
   D30        0.00002  -0.00000   0.00000  -0.00001  -0.00001   0.00001
   D31       -0.00004   0.00000   0.00000   0.00003   0.00003  -0.00001
   D32        3.14155   0.00000   0.00000   0.00003   0.00003   3.14158
   D33        3.14156   0.00000   0.00000   0.00002   0.00002   3.14158
   D34       -0.00003   0.00000   0.00000   0.00002   0.00002  -0.00002
         Item               Value     Threshold  Converged?
 Maximum Force            0.027217     0.000015     NO 
 RMS     Force            0.006565     0.000010     NO 
 Maximum Displacement     0.153154     0.000060     NO 
 RMS     Displacement     0.029863     0.000040     NO 
 Predicted change in Energy=-5.058003D-03
 GradGradGradGradGradGradGradGradGradGradGradGradGradGradGradGradGradGrad

                          Input orientation:                          
 ---------------------------------------------------------------------
 Center     Atomic      Atomic             Coordinates (Angstroms)
 Number     Number       Type             X           Y           Z
 ---------------------------------------------------------------------
      1          8           0       -1.977621    0.634825    1.827080
      2          6           0       -1.617442    0.294460    0.714621
      3          6           0       -0.188812    0.104608    0.327029
      4          6           0        0.782392    0.336021    1.314103
      5          6           0        2.133240    0.178170    1.022765
      6          6           0        2.533102   -0.213206   -0.259103
      7          6           0        1.575397   -0.445783   -1.247629
      8          6           0        0.220326   -0.288657   -0.959641
      9          6           0       -2.698379    0.048772   -0.342648
     10          9           0       -3.924569    0.261671    0.163208
     11          9           0       -2.630476   -1.227306   -0.789569
     12          9           0       -2.515327    0.878402   -1.396657
     13          1           0        0.465991    0.639170    2.305771
     14          1           0        2.874027    0.360490    1.795780
     15          1           0        3.588759   -0.336465   -0.486438
     16          1           0        1.881733   -0.749840   -2.244288
     17          1           0       -0.502339   -0.475333   -1.744385
 ---------------------------------------------------------------------
                    Distance matrix (angstroms):
                    1          2          3          4          5
     1  O    0.000000
     2  C    1.217843   0.000000
     3  C    2.393976   1.492400   0.000000
     4  C    2.823136   2.473926   1.403960   0.000000
     5  C    4.213625   3.765116   2.425157   1.390894   0.000000
     6  C    5.041620   4.293353   2.802387   2.416943   1.398660
     7  C    4.821356   3.820027   2.427943   2.793303   2.419751
     8  C    3.667369   2.553541   1.406260   2.424057   2.794119
     9  C    2.360226   1.531863   2.597982   3.865631   5.022514
    10  F    2.588111   2.372333   3.742644   4.846191   6.119057
    11  F    3.277286   2.367403   2.997083   4.303149   5.287051
    12  F    3.277336   2.367420   2.997086   4.303179   5.287070
    13  H    2.490061   2.644102   2.151731   1.084165   2.153682
    14  H    4.859499   4.620234   3.406419   2.146520   1.086075
    15  H    6.105764   5.380069   3.889257   3.401453   2.158953
    16  H    5.778230   4.699993   3.410118   3.879406   3.405597
    17  H    4.020481   2.807623   2.173795   3.415139   3.876914
                    6          7          8          9         10
     6  C    0.000000
     7  C    1.395878   0.000000
     8  C    2.417722   1.394218   0.000000
     9  C    5.238703   4.396446   3.002229   0.000000
    10  F    6.488865   5.721938   4.329411   1.343412   0.000000
    11  F    5.288888   4.302321   3.006170   1.353782   2.190779
    12  F    5.288882   4.302290   3.006128   1.353783   2.190776
    13  H    3.402656   3.877441   3.403546   4.168444   4.900010
    14  H    2.160533   3.405709   3.880189   5.976768   6.992565
    15  H    1.086870   2.155224   3.401846   6.300571   7.565045
    16  H    2.157132   1.086104   2.150182   5.023091   6.366500
    17  H    3.389495   2.136499   1.083012   2.657470   3.986695
                   11         12         13         14         15
    11  F    0.000000
    12  F    2.194499   0.000000
    13  H    4.759513   4.759565   0.000000
    14  H    6.285275   6.285303   2.477174   0.000000
    15  H    6.290022   6.290014   4.301160   2.491006   0.000000
    16  H    4.764894   4.764850   4.963538   4.305767   2.484925
    17  H    2.450736   2.450640   4.310863   4.962985   4.282383
                   16         17
    16  H    0.000000
    17  H    2.451338   0.000000
 Stoichiometry    C8H5F3O
 Framework group  C1[X(C8H5F3O)]
 Deg. of freedom    45
 Full point group                 C1      NOp   1
 Largest Abelian subgroup         C1      NOp   1
 Largest concise Abelian subgroup C1      NOp   1
                         Standard orientation:                         
 ---------------------------------------------------------------------
 Center     Atomic      Atomic             Coordinates (Angstroms)
 Number     Number       Type             X           Y           Z
 ---------------------------------------------------------------------
      1          8           0       -1.073676    1.970717   -0.000016
      2          6           0       -0.760641    0.793793   -0.000022
      3          6           0        0.651478    0.310909   -0.000015
      4          6           0        1.664426    1.283041   -0.000000
      5          6           0        3.002844    0.904595    0.000006
      6          6           0        3.348385   -0.450710    0.000006
      7          6           0        2.348874   -1.425108   -0.000002
      8          6           0        1.006091   -1.049907   -0.000016
      9          6           0       -1.886286   -0.245210    0.000002
     10          9           0       -3.090969    0.349344   -0.000029
     11          9           0       -1.792603   -1.032561    1.097284
     12          9           0       -1.792600   -1.032654   -1.097214
     13          1           0        1.390049    2.331913    0.000010
     14          1           0        3.776323    1.667018    0.000009
     15          1           0        4.394343   -0.746104    0.000010
     16          1           0        2.612976   -2.478613    0.000008
     17          1           0        0.250235   -1.825534   -0.000035
 ---------------------------------------------------------------------
 Rotational constants (GHZ):           2.0367946           0.6181674           0.5187761
 Standard basis: 6-31G(d) (6D, 7F)
 There are   190 symmetry adapted cartesian basis functions of A   symmetry.
 There are   190 symmetry adapted basis functions of A   symmetry.
   190 basis functions,   356 primitive gaussians,   190 cartesian basis functions
    44 alpha electrons       44 beta electrons
       nuclear repulsion energy       698.2908432395 Hartrees.
 NAtoms=   17 NActive=   17 NUniq=   17 SFac= 1.00D+00 NAtFMM=   60 NAOKFM=F Big=F
 Integral buffers will be    131072 words long.
 Raffenetti 2 integral format.
 Two-electron integral symmetry is turned on.
 One-electron integrals computed using PRISM.
 NBasis=   190 RedAO= T EigKep=  4.66D-04  NBF=   190
 NBsUse=   190 1.00D-06 EigRej= -1.00D+00 NBFU=   190
 Initial guess from the checkpoint file:  "0.chk"
 B after Tr=     0.000000   -0.000000    0.000000
         Rot=    0.999974   -0.000005   -0.000001   -0.007231 Ang=  -0.83 deg.
 ExpMin= 1.61D-01 ExpMax= 7.00D+03 ExpMxC= 1.05D+03 IAcc=2 IRadAn=         4 AccDes= 0.00D+00
 Harris functional with IExCor=  402 and IRadAn=       4 diagonalized for initial guess.
 HarFok:  IExCor=  402 AccDes= 0.00D+00 IRadAn=         4 IDoV= 1 UseB2=F ITyADJ=14
 ICtDFT=  3500011 ScaDFX=  1.000000  1.000000  1.000000  1.000000
 FoFCou: FMM=F IPFlag=           0 FMFlag=      100000 FMFlg1=           0
         NFxFlg=           0 DoJE=T BraDBF=F KetDBF=T FulRan=T
         wScrn=  0.000000 ICntrl=       500 IOpCl=  0 I1Cent=   200000004 NGrid=           0
         NMat0=    1 NMatS0=      1 NMatT0=    0 NMatD0=    1 NMtDS0=    0 NMtDT0=    0
 Petite list used in FoFCou.
 Requested convergence on RMS density matrix=1.00D-08 within 128 cycles.
 Requested convergence on MAX density matrix=1.00D-06.
 Requested convergence on             energy=1.00D-06.
 No special actions if energy rises.
 Integral accuracy reduced to 1.0D-05 until final iterations.
 Initial convergence to 1.0D-05 achieved.  Increase integral accuracy.
 SCF Done:  E(RB3LYP) =  -682.603646879     A.U. after   12 cycles
            NFock= 12  Conv=0.41D-08     -V/T= 2.0082
 Calling FoFJK, ICntrl=      2127 FMM=F ISym2X=0 I1Cent= 0 IOpClX= 0 NMat=1 NMatS=1 NMatT=0.
 ***** Axes restored to original set *****
 -------------------------------------------------------------------
 Center     Atomic                   Forces (Hartrees/Bohr)
 Number     Number              X              Y              Z
 -------------------------------------------------------------------
      1        8           0.002534547   -0.001043966   -0.003143649
      2        6           0.008240468    0.002188652    0.009159790
      3        6          -0.003390249    0.000115027   -0.000245148
      4        6           0.002295309    0.000049132    0.000606292
      5        6          -0.000228347    0.000009725   -0.000009991
      6        6           0.000100547    0.000127249    0.000459955
      7        6          -0.000750473    0.000380812    0.001179793
      8        6           0.000765689   -0.000471104   -0.001490185
      9        6          -0.009275939    0.000405167   -0.000356689
     10        9           0.007221560   -0.002068157   -0.005802814
     11        9          -0.002543954    0.002418406   -0.001326281
     12        9          -0.002811511   -0.002482922    0.000087730
     13        1          -0.001554499    0.000127930    0.000147508
     14        1           0.000394127   -0.000070680   -0.000169538
     15        1          -0.000098510    0.000055407    0.000174233
     16        1          -0.000095354    0.000009969    0.000014803
     17        1          -0.000803410    0.000249353    0.000714192
 -------------------------------------------------------------------
 Cartesian Forces:  Max     0.009275939 RMS     0.002818441

 GradGradGradGradGradGradGradGradGradGradGradGradGradGradGradGradGradGrad
 Berny optimization.
 Using GEDIIS/GDIIS optimizer.
 FormGI is forming the generalized inverse of G from B-inverse, IUseBI=4.
 Internal  Forces:  Max     0.010610006 RMS     0.002116771
 Search for a local minimum.
 Step number   2 out of a maximum of   88
 All quantities printed in internal units (Hartrees-Bohrs-Radians)
 Mixed Optimization -- RFO/linear search
 Update second derivatives using D2CorX and points    1    2
 DE= -4.84D-03 DEPred=-5.06D-03 R= 9.56D-01
 TightC=F SS=  1.41D+00  RLast= 1.84D-01 DXNew= 5.0454D-01 5.5117D-01
 Trust test= 9.56D-01 RLast= 1.84D-01 DXMaxT set to 5.05D-01
 ITU=  1  0
 Use linear search instead of GDIIS.
     Eigenvalues ---    0.00510   0.00644   0.00823   0.01675   0.02061
     Eigenvalues ---    0.02087   0.02092   0.02120   0.02141   0.02162
     Eigenvalues ---    0.02169   0.02182   0.10994   0.11204   0.15435
     Eigenvalues ---    0.16000   0.16000   0.16000   0.16010   0.21915
     Eigenvalues ---    0.22000   0.22725   0.23620   0.25000   0.25000
     Eigenvalues ---    0.25000   0.25000   0.27249   0.32573   0.34632
     Eigenvalues ---    0.35031   0.35088   0.35095   0.35130   0.36903
     Eigenvalues ---    0.41695   0.41871   0.45423   0.45830   0.46162
     Eigenvalues ---    0.46818   0.49778   0.52230   0.52689   0.87722
 RFO step:  Lambda=-1.00616199D-03 EMin= 5.09900334D-03
 Quartic linear search produced a step of -0.02921.
 Iteration  1 RMS(Cart)=  0.01427623 RMS(Int)=  0.00011069
 Iteration  2 RMS(Cart)=  0.00015924 RMS(Int)=  0.00000919
 Iteration  3 RMS(Cart)=  0.00000002 RMS(Int)=  0.00000919
 Variable       Old X    -DE/DX   Delta X   Delta X   Delta X     New X
                                 (Linear)    (Quad)   (Total)
    R1        2.30139  -0.00391   0.00088  -0.00826  -0.00738   2.29401
    R2        2.82023  -0.00365   0.00018  -0.01161  -0.01143   2.80880
    R3        2.89480   0.01061  -0.00069   0.03693   0.03624   2.93104
    R4        2.65310   0.00089   0.00000   0.00194   0.00195   2.65505
    R5        2.65745  -0.00080  -0.00027  -0.00047  -0.00074   2.65671
    R6        2.62841  -0.00046   0.00030  -0.00231  -0.00201   2.62640
    R7        2.04878   0.00062   0.00028   0.00042   0.00071   2.04948
    R8        2.64308  -0.00051  -0.00035   0.00053   0.00018   2.64326
    R9        2.05238   0.00014   0.00008   0.00001   0.00009   2.05247
   R10        2.63783   0.00064  -0.00013   0.00188   0.00175   2.63957
   R11        2.05389  -0.00014   0.00004  -0.00056  -0.00052   2.05337
   R12        2.63469  -0.00060   0.00024  -0.00237  -0.00214   2.63255
   R13        2.05244  -0.00004   0.00011  -0.00061  -0.00051   2.05193
   R14        2.04660  -0.00002   0.00022  -0.00109  -0.00087   2.04573
   R15        2.53868  -0.00910   0.00098  -0.02126  -0.02028   2.51840
   R16        2.55828  -0.00197   0.00054  -0.00614  -0.00560   2.55268
   R17        2.55828  -0.00197   0.00054  -0.00614  -0.00560   2.55268
    A1        2.16025  -0.00258  -0.00264   0.00228  -0.00036   2.15989
    A2        2.05623   0.00074   0.00274  -0.00985  -0.00711   2.04912
    A3        2.06671   0.00184  -0.00010   0.00757   0.00747   2.07417
    A4        2.04726  -0.00194   0.00044  -0.00963  -0.00919   2.03807
    A5        2.15521   0.00116  -0.00031   0.00586   0.00555   2.16076
    A6        2.08072   0.00078  -0.00012   0.00377   0.00364   2.08436
    A7        2.10119   0.00008   0.00011   0.00006   0.00017   2.10136
    A8        2.07978  -0.00151   0.00069  -0.01242  -0.01173   2.06805
    A9        2.10222   0.00143  -0.00081   0.01237   0.01156   2.11378
   A10        2.09599  -0.00072  -0.00007  -0.00274  -0.00281   2.09319
   A11        2.08783   0.00078   0.00016   0.00332   0.00348   2.09131
   A12        2.09936  -0.00007  -0.00010  -0.00058  -0.00068   2.09868
   A13        2.09384   0.00030  -0.00001   0.00132   0.00131   2.09514
   A14        2.09568  -0.00031  -0.00004  -0.00141  -0.00145   2.09423
   A15        2.09367   0.00001   0.00005   0.00009   0.00014   2.09381
   A16        2.09644   0.00065   0.00009   0.00237   0.00246   2.09891
   A17        2.09785  -0.00024  -0.00022   0.00018  -0.00004   2.09780
   A18        2.08889  -0.00042   0.00013  -0.00254  -0.00242   2.08648
   A19        2.09819  -0.00110  -0.00000  -0.00477  -0.00477   2.09341
   A20        2.11418  -0.00058   0.00060  -0.00722  -0.00663   2.10756
   A21        2.07081   0.00168  -0.00059   0.01200   0.01140   2.08221
   A22        1.93774   0.00291   0.00117   0.00540   0.00655   1.94428
   A23        1.92158   0.00414   0.00115   0.01071   0.01183   1.93341
   A24        1.92160   0.00414   0.00116   0.01070   0.01182   1.93342
   A25        1.89597  -0.00377  -0.00130  -0.00896  -0.01028   1.88569
   A26        1.89596  -0.00377  -0.00130  -0.00896  -0.01027   1.88569
   A27        1.89003  -0.00403  -0.00114  -0.00976  -0.01096   1.87908
    D1       -0.00000   0.00000   0.00000   0.00002   0.00002   0.00002
    D2        3.14159   0.00000   0.00000   0.00002   0.00002  -3.14158
    D3       -3.14156  -0.00000   0.00000  -0.00005  -0.00005   3.14157
    D4        0.00003  -0.00000   0.00000  -0.00005  -0.00005  -0.00003
    D5        0.00004  -0.00000   0.00000  -0.00006  -0.00006  -0.00002
    D6       -2.10023   0.00010   0.00005   0.00060   0.00067  -2.09957
    D7        2.10033  -0.00010  -0.00005  -0.00073  -0.00079   2.09954
    D8       -3.14158   0.00000   0.00000   0.00001   0.00001  -3.14157
    D9        1.04133   0.00010   0.00005   0.00067   0.00073   1.04206
   D10       -1.04129  -0.00010  -0.00005  -0.00066  -0.00072  -1.04201
   D11       -3.14159  -0.00000   0.00000  -0.00001  -0.00001   3.14159
   D12        0.00001  -0.00000   0.00000  -0.00001  -0.00001  -0.00000
   D13        0.00001  -0.00000   0.00000  -0.00001  -0.00001  -0.00000
   D14       -3.14158  -0.00000  -0.00000  -0.00001  -0.00001  -3.14159
   D15       -3.14159  -0.00000   0.00000  -0.00000  -0.00000  -3.14159
   D16        0.00001  -0.00000   0.00000  -0.00001  -0.00001   0.00001
   D17        0.00000  -0.00000   0.00000  -0.00000  -0.00000  -0.00000
   D18       -3.14158  -0.00000   0.00000  -0.00001  -0.00001  -3.14159
   D19       -0.00001   0.00000  -0.00000   0.00001   0.00001   0.00000
   D20        3.14158   0.00000  -0.00000   0.00001   0.00001  -3.14159
   D21        3.14158   0.00000  -0.00000   0.00001   0.00001   3.14159
   D22       -0.00001   0.00000  -0.00000   0.00001   0.00001  -0.00000
   D23        0.00000  -0.00000   0.00000  -0.00000  -0.00000  -0.00000
   D24        3.14159   0.00000   0.00000  -0.00000  -0.00000   3.14159
   D25       -3.14159  -0.00000   0.00000  -0.00000  -0.00000  -3.14159
   D26        0.00000  -0.00000  -0.00000   0.00000  -0.00000   0.00000
   D27        0.00001  -0.00000   0.00000  -0.00001  -0.00001  -0.00000
   D28       -3.14158  -0.00000   0.00000  -0.00001  -0.00001  -3.14159
   D29       -3.14158  -0.00000   0.00000  -0.00001  -0.00001   3.14159
   D30        0.00001  -0.00000   0.00000  -0.00001  -0.00001   0.00000
   D31       -0.00001   0.00000  -0.00000   0.00001   0.00001   0.00000
   D32        3.14158   0.00000  -0.00000   0.00001   0.00001   3.14159
   D33        3.14158   0.00000  -0.00000   0.00001   0.00001   3.14159
   D34       -0.00002   0.00000  -0.00000   0.00002   0.00001  -0.00000
         Item               Value     Threshold  Converged?
 Maximum Force            0.010610     0.000015     NO 
 RMS     Force            0.002117     0.000010     NO 
 Maximum Displacement     0.068708     0.000060     NO 
 RMS     Displacement     0.014306     0.000040     NO 
 Predicted change in Energy=-5.084658D-04
 GradGradGradGradGradGradGradGradGradGradGradGradGradGradGradGradGradGrad

                          Input orientation:                          
 ---------------------------------------------------------------------
 Center     Atomic      Atomic             Coordinates (Angstroms)
 Number     Number       Type             X           Y           Z
 ---------------------------------------------------------------------
      1          8           0       -1.954572    0.633330    1.826291
      2          6           0       -1.602281    0.293797    0.715322
      3          6           0       -0.181765    0.102697    0.321804
      4          6           0        0.786360    0.335500    1.313034
      5          6           0        2.137428    0.179179    1.027019
      6          6           0        2.538798   -0.212180   -0.254486
      7          6           0        1.582907   -0.445689   -1.245849
      8          6           0        0.227392   -0.290462   -0.964465
      9          6           0       -2.710813    0.049733   -0.341705
     10          9           0       -3.923745    0.262891    0.167610
     11          9           0       -2.666144   -1.220795   -0.798294
     12          9           0       -2.551686    0.871976   -1.401567
     13          1           0        0.453865    0.638179    2.299977
     14          1           0        2.877907    0.361620    1.800364
     15          1           0        3.594829   -0.334686   -0.479162
     16          1           0        1.891723   -0.749587   -2.241499
     17          1           0       -0.500203   -0.475505   -1.744393
 ---------------------------------------------------------------------
                    Distance matrix (angstroms):
                    1          2          3          4          5
     1  O    0.000000
     2  C    1.213937   0.000000
     3  C    2.384931   1.486352   0.000000
     4  C    2.804432   2.462641   1.404990   0.000000
     5  C    4.193990   3.754426   2.425249   1.389830   0.000000
     6  C    5.023434   4.283115   2.798699   2.414148   1.398754
     7  C    4.807919   3.812932   2.423289   2.791527   2.421545
     8  C    3.660966   2.551616   1.405870   2.427194   2.799072
     9  C    2.369112   1.551038   2.615174   3.879439   5.039405
    10  F    2.601170   2.385401   3.748580   4.847922   6.122369
    11  F    3.291285   2.390989   3.029586   4.335844   5.325974
    12  F    3.291286   2.391000   3.029575   4.335829   5.325954
    13  H    2.454582   2.618676   2.145678   1.084538   2.159974
    14  H    4.840181   4.610206   3.408045   2.147730   1.086120
    15  H    6.086708   5.369518   3.885294   3.398325   2.157928
    16  H    5.766572   4.694625   3.405329   3.877363   3.406785
    17  H    4.011794   2.802963   2.169076   3.414796   3.881550
                    6          7          8          9         10
     6  C    0.000000
     7  C    1.396801   0.000000
     8  C    2.419255   1.393088   0.000000
     9  C    5.256865   4.415762   3.022683   0.000000
    10  F    6.493713   5.729151   4.338171   1.332682   0.000000
    11  F    5.329583   4.342295   3.043958   1.350818   2.171602
    12  F    5.329560   4.342275   3.043944   1.350819   2.171600
    13  H    3.405192   3.875872   3.401506   4.164126   4.883779
    14  H    2.160243   3.407079   3.885192   5.993291   6.995577
    15  H    1.086595   2.155913   3.402514   6.318844   7.569964
    16  H    2.157715   1.085836   2.147466   5.042963   6.375624
    17  H    3.394803   2.142144   1.082554   2.670245   3.990191
                   11         12         13         14         15
    11  F    0.000000
    12  F    2.180993   0.000000
    13  H    4.773837   4.773827   0.000000
    14  H    6.324046   6.324026   2.490397   0.000000
    15  H    6.331415   6.331391   4.305314   2.488987   0.000000
    16  H    4.804064   4.804044   4.961686   4.306274   2.485668
    17  H    2.478278   2.478269   4.302030   4.967666   4.288347
                   16         17
    16  H    0.000000
    17  H    2.458362   0.000000
 Stoichiometry    C8H5F3O
 Framework group  C1[X(C8H5F3O)]
 Deg. of freedom    45
 Full point group                 C1      NOp   1
 Largest Abelian subgroup         C1      NOp   1
 Largest concise Abelian subgroup C1      NOp   1
                         Standard orientation:                         
 ---------------------------------------------------------------------
 Center     Atomic      Atomic             Coordinates (Angstroms)
 Number     Number       Type             X           Y           Z
 ---------------------------------------------------------------------
      1          8           0       -1.039951    1.973682    0.000001
      2          6           0       -0.739632    0.797480    0.000019
      3          6           0        0.662076    0.303053    0.000007
      4          6           0        1.676176    1.275473   -0.000000
      5          6           0        3.013476    0.896982   -0.000005
      6          6           0        3.354897   -0.459464   -0.000005
      7          6           0        2.353020   -1.432757    0.000001
      8          6           0        1.011059   -1.058813    0.000008
      9          6           0       -1.897169   -0.234908   -0.000002
     10          9           0       -3.085951    0.367453   -0.000017
     11          9           0       -1.830709   -1.029329    1.090497
     12          9           0       -1.830688   -1.029335   -1.090496
     13          1           0        1.389857    2.321535    0.000001
     14          1           0        3.789829    1.656543   -0.000010
     15          1           0        4.400113   -0.756466   -0.000009
     16          1           0        2.615261   -2.486450    0.000003
     17          1           0        0.247279   -1.825992    0.000013
 ---------------------------------------------------------------------
 Rotational constants (GHZ):           2.0390352           0.6140365           0.5154164
 Standard basis: 6-31G(d) (6D, 7F)
 There are   190 symmetry adapted cartesian basis functions of A   symmetry.
 There are   190 symmetry adapted basis functions of A   symmetry.
   190 basis functions,   356 primitive gaussians,   190 cartesian basis functions
    44 alpha electrons       44 beta electrons
       nuclear repulsion energy       697.6659517136 Hartrees.
 NAtoms=   17 NActive=   17 NUniq=   17 SFac= 1.00D+00 NAtFMM=   60 NAOKFM=F Big=F
 Integral buffers will be    131072 words long.
 Raffenetti 2 integral format.
 Two-electron integral symmetry is turned on.
 One-electron integrals computed using PRISM.
 NBasis=   190 RedAO= T EigKep=  4.67D-04  NBF=   190
 NBsUse=   190 1.00D-06 EigRej= -1.00D+00 NBFU=   190
 Initial guess from the checkpoint file:  "0.chk"
 B after Tr=    -0.000000   -0.000000   -0.000000
         Rot=    0.999996   -0.000007    0.000000    0.002881 Ang=  -0.33 deg.
 ExpMin= 1.61D-01 ExpMax= 7.00D+03 ExpMxC= 1.05D+03 IAcc=2 IRadAn=         4 AccDes= 0.00D+00
 Harris functional with IExCor=  402 and IRadAn=       4 diagonalized for initial guess.
 HarFok:  IExCor=  402 AccDes= 0.00D+00 IRadAn=         4 IDoV= 1 UseB2=F ITyADJ=14
 ICtDFT=  3500011 ScaDFX=  1.000000  1.000000  1.000000  1.000000
 FoFCou: FMM=F IPFlag=           0 FMFlag=      100000 FMFlg1=           0
         NFxFlg=           0 DoJE=T BraDBF=F KetDBF=T FulRan=T
         wScrn=  0.000000 ICntrl=       500 IOpCl=  0 I1Cent=   200000004 NGrid=           0
         NMat0=    1 NMatS0=      1 NMatT0=    0 NMatD0=    1 NMtDS0=    0 NMtDT0=    0
 Petite list used in FoFCou.
 Requested convergence on RMS density matrix=1.00D-08 within 128 cycles.
 Requested convergence on MAX density matrix=1.00D-06.
 Requested convergence on             energy=1.00D-06.
 No special actions if energy rises.
 Integral accuracy reduced to 1.0D-05 until final iterations.
 Initial convergence to 1.0D-05 achieved.  Increase integral accuracy.
 SCF Done:  E(RB3LYP) =  -682.604112946     A.U. after   11 cycles
            NFock= 11  Conv=0.60D-08     -V/T= 2.0081
 Calling FoFJK, ICntrl=      2127 FMM=F ISym2X=0 I1Cent= 0 IOpClX= 0 NMat=1 NMatS=1 NMatT=0.
 ***** Axes restored to original set *****
 -------------------------------------------------------------------
 Center     Atomic                   Forces (Hartrees/Bohr)
 Number     Number              X              Y              Z
 -------------------------------------------------------------------
      1        8          -0.000036056    0.000546276    0.001894593
      2        6           0.000904946   -0.000265806   -0.000771084
      3        6          -0.000793308   -0.000002317   -0.000152345
      4        6           0.000749770   -0.000003555    0.000130857
      5        6           0.000130298   -0.000047933   -0.000142511
      6        6          -0.000507941    0.000045794    0.000062568
      7        6           0.000236485    0.000092319    0.000365537
      8        6          -0.000396076    0.000170891    0.000517276
      9        6          -0.002302925   -0.000096635   -0.000767951
     10        9           0.000226648    0.000317559    0.001145131
     11        9           0.000958126   -0.001619417   -0.000646827
     12        9           0.001098010    0.000922429   -0.001377807
     13        1          -0.000213706    0.000079028    0.000233442
     14        1           0.000250036   -0.000041688   -0.000097154
     15        1           0.000015786   -0.000012574   -0.000040590
     16        1           0.000252195   -0.000050297   -0.000127010
     17        1          -0.000572286   -0.000034076   -0.000226126
 -------------------------------------------------------------------
 Cartesian Forces:  Max     0.002302925 RMS     0.000678588

 GradGradGradGradGradGradGradGradGradGradGradGradGradGradGradGradGradGrad
 Berny optimization.
 Using GEDIIS/GDIIS optimizer.
 FormGI is forming the generalized inverse of G from B-inverse, IUseBI=4.
 Internal  Forces:  Max     0.001897498 RMS     0.000638764
 Search for a local minimum.
 Step number   3 out of a maximum of   88
 All quantities printed in internal units (Hartrees-Bohrs-Radians)
 Mixed Optimization -- En-DIIS/RFO-DIIS
 Update second derivatives using D2CorX and points    1    2    3
 DE= -4.66D-04 DEPred=-5.08D-04 R= 9.17D-01
 TightC=F SS=  1.41D+00  RLast= 5.82D-02 DXNew= 8.4853D-01 1.7454D-01
 Trust test= 9.17D-01 RLast= 5.82D-02 DXMaxT set to 5.05D-01
 ITU=  1  1  0
 Use linear search instead of GDIIS.
     Eigenvalues ---    0.00510   0.00645   0.00823   0.01676   0.02061
     Eigenvalues ---    0.02088   0.02092   0.02120   0.02141   0.02162
     Eigenvalues ---    0.02169   0.02182   0.10839   0.10965   0.14549
     Eigenvalues ---    0.16000   0.16000   0.16004   0.16036   0.21364
     Eigenvalues ---    0.22006   0.22333   0.23886   0.25000   0.25000
     Eigenvalues ---    0.25000   0.25620   0.27294   0.32619   0.34868
     Eigenvalues ---    0.35047   0.35095   0.35099   0.35227   0.38047
     Eigenvalues ---    0.41676   0.41881   0.45295   0.46038   0.46194
     Eigenvalues ---    0.46820   0.51146   0.52230   0.54978   0.89862
 RFO step:  Lambda=-8.33171281D-05 EMin= 5.09900320D-03
 Quartic linear search produced a step of -0.07233.
 Iteration  1 RMS(Cart)=  0.00824367 RMS(Int)=  0.00001823
 Iteration  2 RMS(Cart)=  0.00004318 RMS(Int)=  0.00000057
 Iteration  3 RMS(Cart)=  0.00000000 RMS(Int)=  0.00000057
 Variable       Old X    -DE/DX   Delta X   Delta X   Delta X     New X
                                 (Linear)    (Quad)   (Total)
    R1        2.29401   0.00190   0.00053   0.00078   0.00132   2.29533
    R2        2.80880  -0.00097   0.00083  -0.00453  -0.00371   2.80509
    R3        2.93104   0.00121  -0.00262   0.00935   0.00673   2.93777
    R4        2.65505   0.00072  -0.00014   0.00185   0.00171   2.65675
    R5        2.65671  -0.00060   0.00005  -0.00131  -0.00125   2.65546
    R6        2.62640   0.00018   0.00015   0.00010   0.00024   2.62664
    R7        2.04948   0.00030  -0.00005   0.00090   0.00085   2.05033
    R8        2.64326  -0.00025  -0.00001  -0.00047  -0.00048   2.64278
    R9        2.05247   0.00009  -0.00001   0.00026   0.00025   2.05272
   R10        2.63957  -0.00032  -0.00013  -0.00042  -0.00055   2.63902
   R11        2.05337   0.00003   0.00004  -0.00002   0.00002   2.05339
   R12        2.63255   0.00018   0.00015  -0.00002   0.00013   2.63269
   R13        2.05193   0.00020   0.00004   0.00045   0.00049   2.05242
   R14        2.04573   0.00055   0.00006   0.00132   0.00138   2.04711
   R15        2.51840   0.00028   0.00147  -0.00270  -0.00123   2.51717
   R16        2.55268   0.00177   0.00041   0.00225   0.00266   2.55533
   R17        2.55268   0.00177   0.00041   0.00225   0.00265   2.55533
    A1        2.15989   0.00026   0.00003   0.00095   0.00097   2.16087
    A2        2.04912   0.00149   0.00051   0.00437   0.00488   2.05400
    A3        2.07417  -0.00175  -0.00054  -0.00531  -0.00585   2.06832
    A4        2.03807   0.00129   0.00067   0.00325   0.00391   2.04198
    A5        2.16076  -0.00151  -0.00040  -0.00481  -0.00522   2.15554
    A6        2.08436   0.00022  -0.00026   0.00157   0.00130   2.08566
    A7        2.10136  -0.00027  -0.00001  -0.00084  -0.00085   2.10051
    A8        2.06805   0.00000   0.00085  -0.00216  -0.00131   2.06673
    A9        2.11378   0.00026  -0.00084   0.00300   0.00216   2.11594
   A10        2.09319  -0.00015   0.00020  -0.00097  -0.00077   2.09242
   A11        2.09131   0.00034  -0.00025   0.00232   0.00207   2.09339
   A12        2.09868  -0.00019   0.00005  -0.00135  -0.00130   2.09738
   A13        2.09514   0.00030  -0.00009   0.00132   0.00122   2.09636
   A14        2.09423  -0.00011   0.00010  -0.00055  -0.00045   2.09379
   A15        2.09381  -0.00019  -0.00001  -0.00076  -0.00077   2.09304
   A16        2.09891   0.00003  -0.00018   0.00027   0.00009   2.09899
   A17        2.09780  -0.00022   0.00000  -0.00115  -0.00114   2.09666
   A18        2.08648   0.00020   0.00017   0.00088   0.00106   2.08753
   A19        2.09341  -0.00013   0.00035  -0.00134  -0.00099   2.09242
   A20        2.10756  -0.00021   0.00048  -0.00235  -0.00187   2.10569
   A21        2.08221   0.00034  -0.00082   0.00369   0.00286   2.08508
   A22        1.94428  -0.00147  -0.00047  -0.00352  -0.00399   1.94030
   A23        1.93341  -0.00076  -0.00086  -0.00147  -0.00233   1.93109
   A24        1.93342  -0.00077  -0.00086  -0.00148  -0.00234   1.93109
   A25        1.88569   0.00142   0.00074   0.00453   0.00527   1.89096
   A26        1.88569   0.00142   0.00074   0.00453   0.00528   1.89096
   A27        1.87908   0.00032   0.00079  -0.00228  -0.00149   1.87758
    D1        0.00002  -0.00000  -0.00000  -0.00012  -0.00012  -0.00010
    D2       -3.14158  -0.00000  -0.00000  -0.00011  -0.00011   3.14150
    D3        3.14157   0.00000   0.00000   0.00008   0.00008  -3.14153
    D4       -0.00003   0.00000   0.00000   0.00009   0.00009   0.00006
    D5       -0.00002   0.00000   0.00000   0.00008   0.00008   0.00007
    D6       -2.09957  -0.00030  -0.00005  -0.00231  -0.00236  -2.10193
    D7        2.09954   0.00030   0.00006   0.00246   0.00252   2.10206
    D8       -3.14157  -0.00000  -0.00000  -0.00011  -0.00011   3.14151
    D9        1.04206  -0.00030  -0.00005  -0.00250  -0.00255   1.03952
   D10       -1.04201   0.00030   0.00005   0.00228   0.00233  -1.03969
   D11        3.14159   0.00000   0.00000   0.00001   0.00001  -3.14159
   D12       -0.00000   0.00000   0.00000   0.00000   0.00000  -0.00000
   D13       -0.00000   0.00000   0.00000   0.00000   0.00000   0.00000
   D14       -3.14159  -0.00000   0.00000  -0.00000  -0.00000  -3.14159
   D15       -3.14159  -0.00000   0.00000  -0.00001  -0.00001   3.14159
   D16        0.00001  -0.00000   0.00000  -0.00001  -0.00001  -0.00000
   D17       -0.00000  -0.00000   0.00000  -0.00000  -0.00000  -0.00000
   D18       -3.14159  -0.00000   0.00000  -0.00000  -0.00000   3.14159
   D19        0.00000  -0.00000  -0.00000  -0.00000  -0.00000  -0.00000
   D20       -3.14159  -0.00000  -0.00000  -0.00000  -0.00000   3.14159
   D21        3.14159   0.00000  -0.00000   0.00000   0.00000  -3.14159
   D22       -0.00000   0.00000  -0.00000   0.00000   0.00000   0.00000
   D23       -0.00000   0.00000   0.00000   0.00000   0.00000   0.00000
   D24        3.14159   0.00000   0.00000   0.00000   0.00000  -3.14159
   D25       -3.14159  -0.00000   0.00000  -0.00000  -0.00000   3.14159
   D26        0.00000  -0.00000   0.00000  -0.00000  -0.00000   0.00000
   D27       -0.00000   0.00000   0.00000   0.00000   0.00000  -0.00000
   D28       -3.14159  -0.00000   0.00000  -0.00000  -0.00000   3.14159
   D29        3.14159   0.00000   0.00000  -0.00000   0.00000   3.14159
   D30        0.00000  -0.00000   0.00000  -0.00000  -0.00000  -0.00000
   D31        0.00000  -0.00000  -0.00000   0.00000  -0.00000   0.00000
   D32        3.14159   0.00000  -0.00000   0.00000   0.00000  -3.14159
   D33        3.14159   0.00000  -0.00000   0.00000   0.00000  -3.14159
   D34       -0.00000   0.00000  -0.00000   0.00001   0.00000   0.00000
         Item               Value     Threshold  Converged?
 Maximum Force            0.001897     0.000015     NO 
 RMS     Force            0.000639     0.000010     NO 
 Maximum Displacement     0.028933     0.000060     NO 
 RMS     Displacement     0.008275     0.000040     NO 
 Predicted change in Energy=-4.453946D-05
 GradGradGradGradGradGradGradGradGradGradGradGradGradGradGradGradGradGrad

                          Input orientation:                          
 ---------------------------------------------------------------------
 Center     Atomic      Atomic             Coordinates (Angstroms)
 Number     Number       Type             X           Y           Z
 ---------------------------------------------------------------------
      1          8           0       -1.957449    0.634554    1.830060
      2          6           0       -1.602332    0.295015    0.719230
      3          6           0       -0.183143    0.104602    0.328001
      4          6           0        0.788273    0.336688    1.317457
      5          6           0        2.138350    0.179075    1.026886
      6          6           0        2.533955   -0.212405   -0.256094
      7          6           0        1.575190   -0.444886   -1.244510
      8          6           0        0.220536   -0.288560   -0.959272
      9          6           0       -2.705650    0.047722   -0.347690
     10          9           0       -3.919710    0.259724    0.157699
     11          9           0       -2.650833   -1.223911   -0.804261
     12          9           0       -2.536466    0.869899   -1.407836
     13          1           0        0.456999    0.639557    2.305246
     14          1           0        2.883309    0.360157    1.796428
     15          1           0        3.589039   -0.336004   -0.484643
     16          1           0        1.882117   -0.748925   -2.240984
     17          1           0       -0.512182   -0.472303   -1.735717
 ---------------------------------------------------------------------
                    Distance matrix (angstroms):
                    1          2          3          4          5
     1  O    0.000000
     2  C    1.214635   0.000000
     3  C    2.384363   1.484390   0.000000
     4  C    2.808998   2.464671   1.405894   0.000000
     5  C    4.198585   3.755102   2.425555   1.389957   0.000000
     6  C    5.024150   4.279907   2.797192   2.413498   1.398498
     7  C    4.806008   3.807936   2.422079   2.791733   2.421924
     8  C    3.657339   2.545737   1.405206   2.428324   2.800271
     9  C    2.376294   1.554601   2.612056   3.881200   5.036968
    10  F    2.605333   2.384702   3.743661   4.849337   6.120627
    11  F    3.297624   2.393223   3.022658   4.331814   5.315801
    12  F    3.297669   2.393222   3.022738   4.331908   5.315921
    13  H    2.460769   2.622022   2.146032   1.084987   2.161755
    14  H    4.848645   4.613629   3.409503   2.149218   1.086254
    15  H    6.087968   5.366360   3.883797   3.397700   2.157435
    16  H    5.764519   4.689783   3.404922   3.877829   3.406731
    17  H    4.003585   2.793559   2.167953   3.415776   3.883502
                    6          7          8          9         10
     6  C    0.000000
     7  C    1.396512   0.000000
     8  C    2.419125   1.393157   0.000000
     9  C    5.246858   4.401425   3.008269   0.000000
    10  F    6.484128   5.714594   4.323178   1.332030   0.000000
    11  F    5.310900   4.319719   3.023850   1.352225   2.176370
    12  F    5.311032   4.319844   3.023954   1.352224   2.176368
    13  H    3.405883   3.876485   3.402115   4.170214   4.889971
    14  H    2.159333   3.406842   3.886524   5.994274   6.998327
    15  H    1.086606   2.155189   3.402108   6.307861   7.559683
    16  H    2.156974   1.086096   2.148389   5.026611   6.358636
    17  H    3.396437   2.144564   1.083284   2.647328   3.966376
                   11         12         13         14         15
    11  F    0.000000
    12  F    2.182069   0.000000
    13  H    4.774952   4.775026   0.000000
    14  H    6.316611   6.316732   2.494782   0.000000
    15  H    6.310827   6.310967   4.306375   2.487162   0.000000
    16  H    4.778852   4.778975   4.962564   4.305013   2.483711
    17  H    2.450787   2.450865   4.301735   4.969748   4.289962
                   16         17
    16  H    0.000000
    17  H    2.462617   0.000000
 Stoichiometry    C8H5F3O
 Framework group  C1[X(C8H5F3O)]
 Deg. of freedom    45
 Full point group                 C1      NOp   1
 Largest Abelian subgroup         C1      NOp   1
 Largest concise Abelian subgroup C1      NOp   1
                         Standard orientation:                         
 ---------------------------------------------------------------------
[...]
   zx         0.249921D+01      0.370344D+00      0.412064D+00
   zy        -0.357087D+00     -0.529148D-01     -0.588757D-01
   zz         0.118496D+03      0.175594D+02      0.195374D+02

 ----------------------------------------------------------------------
 1\1\GINC-MAC-2024NOMAC-STUDIO\Freq\RB3LYP\6-31G(d)\C8H5F3O1\ROOT\15-No
 v-2024\0\\#N Geom=AllCheck Guess=TCheck SCRF=Check GenChk RB3LYP/6-31G
 (d) Freq\\good luck\\0,1\O,-1.9574414984,0.634343755,1.8292525753\C,-1
 .6025976062,0.2946353848,0.7180915524\C,-0.1828842176,0.1042627395,0.3
 269965478\C,0.7883102751,0.3364949392,1.3168485927\C,2.1384258992,0.17
 91383107,1.0270816381\C,2.5349636397,-0.2123271755,-0.2557054894\C,1.5
 772934609,-0.4450570226,-1.2447176369\C,0.222268475,-0.2889255633,-0.9
 60131772\C,-2.707824343,0.0481136777,-0.3467452427\F,-3.9207075205,0.2
 608676279,0.1612374745\F,-2.6558485928,-1.22403334,-0.8037279367\F,-2.
 5413047725,0.8707771446,-1.4075885944\H,0.4568071265,0.639348524,2.304
 5740009\H,2.8832024959,0.3602849962,1.7967653996\H,3.5902946987,-0.335
 7126053,-0.4835443304\H,1.8856410016,-0.7490549832,-2.2408059816\H,-0.
 5085975216,-0.4731574095,-1.7378797971\\Version=EM64M-G16RevA.03\State
 =1-A\HF=-682.604153\RMSD=3.041e-09\RMSF=1.187e-06\ZeroPoint=0.1155038\
 Thermal=0.1252468\Dipole=1.3594795,-0.2130046,-0.4810443\DipoleDeriv=-
 0.8446813,0.0752526,0.1560881,0.1619845,-0.3440169,-0.1520209,0.456968
 ,-0.1684752,-0.7890979,1.5608925,-0.1528443,-0.2600217,-0.1868305,0.20
 41849,0.1994242,-0.377923,0.2058721,0.7789679,-0.8320412,0.0975144,0.1
 808328,0.0528595,-0.0164871,-0.0401546,0.0259207,-0.0316837,-0.1070162
 ,0.1253363,-0.0641966,-0.1865525,0.0272388,-0.0573466,0.0324881,0.1306
 39,0.0151438,0.0120929,-0.0465702,0.0650669,0.2383061,0.0559274,-0.114
 7852,0.004149,0.2066013,0.0058828,-0.0533244,0.1708713,-0.0190618,-0.0
 207612,-0.0175974,-0.0556472,0.0404739,-0.0156815,0.0401962,0.0681906,
 -0.2497231,-0.0302171,-0.1304171,-0.0346997,-0.0915633,0.0740485,-0.14
 59671,0.0748986,0.1173305,0.1973902,0.0148989,0.1030612,-0.0606186,-0.
 0642474,0.0204215,-0.1589144,0.0347471,0.016945,1.7266408,-0.0468557,-
 0.1325633,-0.0072639,1.5410654,-0.0969089,0.0047836,-0.1044189,1.20728
 1,-0.997152,0.091355,0.1763776,0.0674885,-0.2670479,-0.0245656,0.09358
 55,-0.0200385,-0.3080388,-0.4469836,-0.0365285,-0.0616587,-0.0472923,-
 0.771986,-0.1478875,-0.0951143,-0.2140024,-0.3422738,-0.445264,-0.0149
 749,-0.0419011,-0.0216986,-0.4846784,0.2442502,-0.0691097,0.3136827,-0
 .6313011,0.0968816,0.0130932,0.0426391,0.0034763,0.1024751,-0.0308029,
 0.0092777,-0.0289787,0.0127765,-0.0245096,-0.0138006,-0.0745053,-0.016
 4443,0.1074861,-0.0322291,-0.0836762,-0.0317277,-0.0100598,-0.0913244,
 0.0207365,0.0336742,0.0206052,0.1049942,-0.0147611,0.0332186,-0.014736
 2,0.0655571,0.0444868,0.0144459,0.0365093,0.0186563,0.0994141,-0.05469
 9,0.051116,-0.0554976,-0.0666248,0.0557499,-0.0138839,-0.0591076,-0.01
 57911,0.1081863,-0.0212259,-0.065724,-0.0208642,0.0285954\Polar=116.37
 25485,-6.0909948,41.4787531,-6.0369668,15.0486842,87.8669818\Quadrupol
 e=2.9758369,-2.2517851,-0.7240518,0.155247,1.5496695,0.3852223\PG=C01 
 [X(C8H5F3O1)]\NImag=0\\0.16715121,-0.06409512,0.08728140,-0.19494664,0
 .21192125,0.72087637,-0.15459406,0.05060808,0.15781810,0.56127443,0.05
 276128,-0.11455680,-0.17561755,-0.05579957,0.27008732,0.16528745,-0.17
 602585,-0.64033974,-0.12732766,0.19074275,0.84959699,-0.01821077,0.015
 25183,0.04615301,-0.19822848,0.00460802,-0.00788452,0.61330476,0.01691
 255,0.01226091,-0.01464092,0.00864387,-0.07519147,-0.00806069,-0.02222
 174,0.18267687,0.05191441,-0.01495600,-0.02462925,0.00611537,-0.008826
 22,-0.10185334,0.01296166,0.14870157,0.65690613,0.00011360,-0.00301340
 ,-0.01039177,-0.04332831,-0.00089305,-0.01186527,-0.19942152,-0.012514
 38,-0.06856980,0.69758862,0.00062598,-0.00071119,-0.00160998,0.0010644
 7,0.00449920,0.00578324,-0.02591286,-0.07704092,-0.04042827,-0.0397559
 9,0.18827091,0.00223348,-0.00230033,-0.00776918,-0.00507479,0.00541188
 ,0.02070173,-0.11504950,-0.03788666,-0.22005827,-0.03226391,0.15771048
 ,0.68161758,0.00158828,0.00069600,0.00283297,0.00206232,-0.00237795,-0
 .00911141,-0.04882038,-0.01093861,-0.04885649,-0.34313217,0.03687871,0
 .07453494,0.71601107,0.00042483,-0.00070689,-0.00022851,-0.00169323,0.
 00618947,-0.00177102,0.00160159,0.01238210,0.01309947,0.01861531,-0.06
 991403,-0.02519404,-0.01893048,0.17547655,0.00189223,-0.00017706,-0.00
 087308,-0.00673600,-0.00190093,-0.00126473,-0.00535415,0.01072067,0.04
 486823,0.01117864,-0.02172958,-0.13489368,0.04534951,0.15155997,0.6651
 2155,-0.00009188,-0.00024673,-0.00086930,0.00028473,0.00001121,0.00020
 932,-0.00399644,-0.00421304,-0.01375496,0.00079448,0.01097077,0.036964
 26,-0.14757101,0.02878873,0.08351317,0.74137026,0.00054582,-0.00002040
 ,0.00010728,-0.00042383,-0.00089663,-0.00106262,-0.00417750,-0.0119241
 4,-0.01256273,0.02392755,0.00482449,-0.00148270,0.00996429,-0.08296865
 ,-0.07311232,-0.03460446,0.18027062,0.00188011,-0.00004307,0.00018577,
 -0.00129988,-0.00098009,-0.00426004,-0.01363165,-0.01256947,-0.0547209
 9,0.08191178,-0.00394052,0.00842868,0.01821053,-0.06954143,-0.29913544
 ,-0.00540474,0.14343640,0.63359153,-0.00306382,0.00094371,0.00302548,0
 .00748522,-0.00001345,-0.00023027,-0.00574138,0.02246299,0.07518302,-0
 .06109724,-0.00244653,-0.01868932,0.06057026,-0.01665073,-0.04771006,-
 0.22915428,-0.01091724,-0.06969181,0.67914214,0.00053487,-0.00164947,0
 .00046719,0.00027939,0.00730807,-0.00391862,0.01002894,0.00687461,-0.0
 0447589,-0.00176778,-0.00684783,0.00128465,-0.00397816,0.00410977,-0.0
 1279379,-0.02976286,-0.07289787,-0.04548786,-0.03339039,0.17835792,0.0
 0160717,0.00054476,0.00043974,0.00078569,-0.00397418,-0.00518458,0.032
 04875,-0.00211723,0.00744807,-0.01633472,0.00115590,-0.00640358,-0.003
 74847,-0.01519770,-0.04585220,-0.13506788,-0.04191296,-0.23243189,-0.0
 1152682,0.16392456,0.69575200,-0.00610765,0.00035373,-0.00068043,-0.00
 621275,0.00954287,0.03246972,-0.13541057,0.00951096,0.01883502,0.05454
 567,-0.00381601,-0.00444321,-0.03653188,0.01033792,0.03031351,-0.04784
 303,-0.01357100,-0.05738724,-0.33270222,0.03656697,0.07515342,0.716880
 75,-0.00117004,0.00440337,0.00135614,0.00518563,-0.00416520,-0.0035231
 4,0.02247362,-0.08102513,-0.06599573,-0.01520178,0.00456652,-0.0154306
 5,0.01072017,-0.01005901,-0.00761062,-0.00017988,0.01102531,0.01565649
 ,0.01786210,-0.06850751,-0.02555470,-0.01697814,0.17859179,-0.00596650
 ,0.00164516,0.00852389,0.01735434,-0.00269655,-0.00892858,0.06380306,-
 0.06845469,-0.28614047,-0.04394082,-0.01327084,-0.04618897,0.03163953,
 -0.00768313,-0.02793012,-0.01093302,0.01311628,0.04992916,0.01026545,-
 0.02200649,-0.13455833,0.05150354,0.14840069,0.65946181,0.01571745,0.0
 0189353,0.00630524,-0.15286943,-0.00795308,-0.04331490,-0.01221842,-0.
 00366760,-0.01746491,-0.00396588,0.00055409,0.00091002,0.00072199,-0.0
 0063007,-0.00191777,0.00045542,0.00008479,0.00027726,0.00067539,0.0002
 7815,0.00147884,-0.00129515,-0.00009245,-0.00017029,0.60413960,-0.0019
 8624,0.01153624,-0.01970327,-0.01074793,-0.07000590,-0.00216801,0.0038
 5136,0.01289142,0.00111558,0.00141671,0.00087930,-0.00143285,0.0001952
 1,-0.00062150,0.00027681,-0.00000010,0.00052864,-0.00005469,-0.0000252
 6,-0.00204792,-0.00005284,0.00018242,-0.00136473,0.00254345,-0.0060511
 2,0.49154926,-0.00715406,-0.01896740,-0.05004858,-0.05300966,-0.001637
 73,-0.08570497,0.00861823,-0.00031073,0.01333738,0.00390242,-0.0015964
 9,-0.00342817,0.00094515,0.00012026,-0.00009415,-0.00001721,-0.0000385
 8,0.00040729,0.00042630,0.00000471,-0.00193686,0.00078327,0.00249131,0
 .00670310,0.00144946,0.01867832,0.55090509,0.00544641,-0.00048164,-0.0
 0054726,-0.04538168,0.00954560,0.02295511,-0.00258371,-0.00243317,-0.0
 0902038,-0.00211977,0.00076176,0.00228110,-0.00053431,-0.00017107,-0.0
 0070277,-0.00004333,-0.00001215,-0.00003581,-0.00018711,-0.00006274,-0
 .00030495,0.00078546,-0.00010068,-0.00018582,-0.29031514,0.02739241,0.
 05383837,0.36408007,-0.00249543,0.00001776,0.00124249,-0.00086862,0.00
 737367,-0.00294282,-0.00022178,0.00040039,-0.00029068,-0.00015291,-0.0
 0018144,0.00008490,0.00000622,0.00004892,0.00002530,-0.00000528,-0.000
 06896,0.00002629,-0.00000252,0.00028550,0.00004264,-0.00004810,-0.0001
 4674,-0.00025370,0.03223495,-0.07795646,-0.01044241,-0.05218386,0.0868
 4184,-0.00753322,0.00162448,0.00372962,-0.01317214,-0.00096742,0.00231
 987,-0.00134899,-0.00071014,-0.00224735,-0.00089190,0.00025841,0.00051
 295,-0.00008772,-0.00000833,-0.00000357,-0.00001196,0.00002499,0.00000
 759,-0.00009605,0.00003122,0.00036315,-0.00000341,-0.00026367,-0.00099
 156,0.07063732,-0.01136096,-0.09919632,-0.12665375,0.02275506,0.132342
 55,-0.00264862,0.00040742,-0.00608031,0.01277858,-0.01921545,-0.005590
 45,-0.00106618,0.00214420,0.00105046,0.00094351,0.00001525,0.00032356,
 -0.00038597,0.00004494,0.00048194,-0.00028590,0.00013250,-0.00021511,-
 0.00007575,-0.00079805,-0.00073472,-0.00240590,-0.00101737,0.00195118,
 -0.08067640,-0.01804432,-0.00884986,-0.01092359,0.04969720,0.02754134,
 0.07496219,-0.00557757,0.00022197,-0.00848106,0.01064842,-0.02212817,-
 0.00591694,-0.00294038,0.00142019,-0.00094429,-0.00021963,0.00075155,0
 .00058253,-0.00017694,0.00000973,0.00034673,-0.00013192,-0.00003092,-0
 .00002306,-0.00032727,0.00012125,0.00018690,-0.00096972,0.00060995,-0.
 00126758,-0.01825153,-0.23880222,-0.07775538,0.03424374,-0.02500182,-0
 .02507681,-0.01009414,0.35266219,-0.00449265,0.00241902,-0.00573539,0.
 00810014,-0.03046689,-0.00000363,-0.00327445,0.00265261,-0.00175655,0.
 00032366,0.00067021,0.00100208,-0.00043763,-0.00000330,0.00061255,-0.0
 0003765,-0.00008233,-0.00035049,-0.00003607,0.00001094,0.00075198,-0.0
 0042409,-0.00037500,-0.00302644,-0.01338246,-0.07983561,-0.10963033,0.
 02050486,-0.02800298,-0.00529886,-0.01087002,0.09794635,0.10324696,-0.
 00239188,-0.00300431,-0.00436275,0.01345061,0.01111915,-0.01329049,-0.
 00103101,-0.00107433,0.00199414,0.00097709,0.00009200,0.00025385,-0.00
 036762,0.00024675,0.00040359,-0.00029042,-0.00020181,-0.00012540,0.000
 01680,0.00029595,-0.00104519,-0.00212794,0.00219569,0.00103478,-0.0788
 5061,0.00254435,-0.00379690,-0.01792515,-0.02584388,0.05194932,0.01252
 146,-0.00520170,0.00358171,0.07862297,0.00259123,0.00134901,0.00461992
 ,-0.00619494,-0.00014790,0.00684586,0.00083200,-0.00021185,-0.00018336
 ,0.00028845,0.00021260,-0.00013230,-0.00004329,0.00000863,-0.00002178,
 0.00011806,-0.00006292,-0.00013580,0.00027318,0.00015446,0.00026679,0.
 00086857,0.00003843,-0.00092324,0.00037419,-0.13229453,0.09249375,-0.0
 1640539,0.00894681,0.01327354,-0.00283009,-0.06766149,0.03511201,0.018
 97579,0.19151543,-0.00730131,-0.00620629,-0.00711932,0.01655448,0.0290
 1529,-0.02265575,-0.00470644,-0.00317737,-0.00015972,0.00012042,-0.000
 21269,0.00150744,-0.00045273,0.00042535,0.00059530,-0.00011047,-0.0000
 8704,-0.00031397,-0.00018968,0.00035776,0.00062621,-0.00102852,-0.0015
 7312,-0.00273283,-0.00751151,0.09502490,-0.21796394,0.03811974,0.01734
 066,-0.03224595,0.00201584,0.01897770,0.01867312,-0.03545628,-0.151988
 82,0.26073306,-0.00165927,0.00043930,0.00125377,0.00111979,-0.00083734
 ,-0.00195885,0.01179441,-0.00607015,-0.01957714,-0.08511703,0.02504771
 ,0.07832324,-0.00386380,0.00867184,0.02853431,-0.00543922,0.00071722,-
 0.00001268,-0.00102613,-0.00011948,-0.00051767,-0.00363859,-0.00038014
 ,-0.00306423,-0.00011188,-0.00015748,-0.00065113,0.00012154,0.00003948
 ,0.00016241,0.00013056,0.00045002,0.00041678,0.00009195,-0.00017801,0.
 00059359,0.08609019,0.00056643,-0.00005507,0.00073134,0.00041379,-0.00
 379950,0.00031191,0.00132567,0.00245811,-0.00506338,0.02463252,-0.0638
 1997,-0.07813660,0.00033966,0.00348877,-0.00274927,0.00083661,0.007204
 61,-0.00171154,-0.00003529,-0.00039262,0.00030420,-0.00065796,0.005118
 59,-0.00166690,0.00002625,0.00038926,-0.00017345,-0.00003645,-0.000002
 78,0.00002737,0.00002598,-0.00004552,0.00006336,-0.00005324,-0.0000664
 2,-0.00000799,-0.02725992,0.05392386,0.00169479,0.00070722,0.00253996,
 0.00238136,0.00007458,-0.00315636,0.00607924,-0.00646631,-0.01728847,0
 .07688287,-0.07805785,-0.29615014,-0.00037026,-0.00116871,0.00017533,0
 .00040150,-0.00173418,0.00180397,-0.00022563,0.00028823,0.00047484,-0.
 00402798,-0.00161420,-0.00080070,-0.00001375,-0.00020830,-0.00028453,-
 0.00010099,0.00004178,0.00011310,-0.00002164,0.00012061,0.00009743,-0.
 00000619,-0.00000846,0.00015694,-0.08343192,0.08684964,0.31285543,-0.0
 0007730,0.00015210,0.00049298,-0.00016204,-0.00055648,-0.00205305,-0.0
 0444711,0.00148596,0.00286121,-0.01709168,-0.00574297,-0.02365703,-0.1
 9197393,-0.03095606,-0.13683846,0.01050577,0.00196349,0.00831667,0.000
 23701,0.00097033,0.00210381,-0.00034582,0.00028397,0.00096884,0.000023
 97,0.00016862,0.00062911,-0.00043000,-0.00000003,-0.00008543,-0.000036
 55,-0.00013007,-0.00012889,-0.00002471,0.00004004,-0.00016941,0.001148
 58,-0.00021749,0.00026831,0.20139855,-0.00004114,0.00009698,-0.0000367
 9,0.00017875,0.00049824,0.00008249,0.00112746,0.00700391,-0.00200690,0
 .00292127,0.00333812,0.00313160,-0.03092172,-0.04643143,-0.03955642,-0
 .00679620,0.00127021,-0.00580000,0.00129921,0.00592943,-0.00309070,0.0
 0029466,-0.00029088,-0.00005090,0.00004929,-0.00021069,0.00000310,0.00
 002818,0.00001957,0.00000442,-0.00003961,-0.00007618,-0.00004632,0.000
 00872,-0.00004185,0.00009951,-0.00036987,-0.00384270,0.00131895,0.0328
 5798,0.03702597,-0.00017734,-0.00000014,0.00007123,0.00049750,-0.00005
 698,0.00038095,0.00161757,-0.00193890,0.00122480,0.00639952,0.00148804
 ,0.00897116,-0.13671933,-0.03956294,-0.19989963,-0.02207101,-0.0041383
 4,-0.01597228,0.00324472,-0.00315309,-0.00343127,0.00100592,-0.0000529
 3,-0.00025288,0.00021517,0.00002574,-0.00007879,0.00001243,-0.00000093
 ,0.00001896,-0.00004000,0.00001876,0.00001953,-0.00005315,0.00002321,-
 0.00002665,-0.00026032,0.00134786,0.00038325,0.14726639,0.04464500,0.2
 0876377,-0.00016804,0.00004956,0.00008550,0.00012567,-0.00009264,-0.00
 002006,0.00064982,-0.00018753,-0.00045362,0.00141105,0.00074967,0.0015
 0873,-0.00441293,0.00033535,-0.00041526,-0.32464588,0.03190605,0.05648
 576,-0.01628364,0.00316070,0.00712644,-0.00100367,-0.00067588,-0.00391
 611,0.00031094,-0.00002849,-0.00007298,-0.00015127,0.00001280,0.000019
 71,-0.00011237,-0.00000502,0.00002789,-0.00011679,0.00002887,0.0000167
 0,-0.00027289,-0.00004001,-0.00015328,0.00078715,-0.00015638,0.0003129
 8,0.34379997,0.00006838,0.00027731,-0.00002270,-0.00007225,-0.00135578
 ,0.00035719,-0.00020175,-0.00043069,-0.00018498,0.00051870,0.00611922,
 -0.00353723,0.00902151,0.00303756,-0.00131120,0.03192489,-0.04431566,-
 0.01260832,-0.00554816,0.00459695,0.00119301,-0.00045056,0.00654719,-0
 .00262903,0.00002456,0.00013998,-0.00011572,0.00000885,-0.00001629,0.0
 0001825,0.00004537,0.00000316,0.00003991,-0.00007030,-0.00001298,0.000
 01863,0.00040689,-0.00020723,0.00004014,-0.00034838,-0.00334010,0.0012
 6081,-0.03493105,0.03250887,0.00015080,-0.00002627,0.00022508,0.000050
 68,0.00035333,-0.00022738,-0.00050294,-0.00018229,-0.00111616,0.000707
 46,-0.00349342,-0.00481735,0.02971735,-0.00295891,-0.00071852,0.056551
 11,-0.01261190,-0.07195915,-0.02308487,0.00284503,0.00944011,-0.003134
 49,-0.00267177,-0.00258264,0.00011104,-0.00012578,-0.00024060,0.000005
 99,0.00001900,0.00004596,-0.00007763,0.00005660,0.00008145,-0.00004702
 ,0.00001119,0.00010202,0.00139704,-0.00004463,-0.00008636,-0.00035307,
 0.00129724,0.00071059,-0.06088490,0.01609111,0.07023144,-0.00086710,0.
 00017407,0.00051473,0.00092905,0.00032560,0.00116023,-0.00571718,0.000
 59575,-0.00040594,-0.00107739,-0.00013668,-0.00061126,-0.00302080,-0.0
 0030367,-0.00294106,0.01065305,-0.00671985,-0.02177640,-0.08265407,0.0
 2344987,0.07252526,-0.00479519,0.00911091,0.03027538,0.00020595,0.0001
 2660,0.00046427,-0.00013302,-0.00001754,-0.00008390,-0.00005600,-0.000
 14246,-0.00016159,-0.00004305,0.00003508,-0.00021275,0.00011722,-0.000
 04291,0.00009164,0.00043471,-0.00034146,-0.00116043,0.00092097,-0.0001
 0447,0.00054275,0.08397372,0.00011452,-0.00040030,0.00001111,-0.000217
 43,0.00070707,-0.00024980,0.00101908,0.00683346,-0.00148581,-0.0001485
 3,-0.00027182,0.00025912,-0.00063226,0.00638088,-0.00202521,0.00206798
 ,0.00123560,-0.00420557,0.02350627,-0.06008818,-0.07861387,0.00036151,
 0.00138401,-0.00283034,-0.00007380,0.00004858,-0.00010101,0.00004181,-
 0.00000886,0.00001728,-0.00000677,-0.00000903,0.00004196,0.00005003,-0
 .00005466,0.00005550,-0.00004117,-0.00106308,0.00029562,0.00013694,0.0
 0022173,-0.00027183,-0.00029143,-0.00347498,0.00124824,-0.02568161,0.0
 5217536,0.00030815,0.00002241,-0.00026105,-0.00072358,-0.00014679,0.00
 012071,0.00106263,-0.00156611,0.00208617,-0.00065237,0.00026136,0.0004
 2829,-0.00408096,-0.00196287,-0.00065331,0.00870891,-0.00587257,-0.016
 15913,0.07272092,-0.07862457,-0.29509799,-0.00007658,-0.00117063,-0.00
 185583,-0.00023093,-0.00006299,-0.00018867,0.00012200,0.00000602,0.000
 03246,0.00008578,0.00009131,0.00007250,0.00006246,-0.00002243,0.000105
 17,0.00009768,0.00029529,-0.00010764,0.00049917,-0.00036258,-0.0008555
 5,-0.00010580,0.00128371,0.00058242,-0.07805919,0.08655384,0.31127168,
 -0.00013656,-0.00012814,-0.00060333,0.00126634,-0.00017470,0.00056511,
 0.01114417,0.00156429,0.00718795,-0.00002303,0.00105063,0.00245584,-0.
 00033914,0.00026805,0.00094863,-0.00470230,0.00138614,0.00249859,-0.01
 614119,-0.00568569,-0.02354895,-0.19179152,-0.03203572,-0.14061931,-0.
 00194780,0.00116326,0.00249523,0.00029459,-0.00015068,-0.00034164,-0.0
 0266305,-0.00117383,0.00029046,-0.00251168,0.00122624,-0.00028167,0.00
 051458,0.00017635,0.00055191,0.00005339,-0.00009914,-0.00009062,-0.000
 83807,-0.00029221,-0.00114929,0.00112915,-0.00020514,0.00026170,0.2066
 9212,0.00021963,0.00065517,-0.00011594,-0.00100462,-0.00441568,0.00151
 607,-0.00644356,0.00062221,-0.00551235,0.00134695,0.00532529,-0.002931
 80,0.00017765,-0.00043087,0.00005870,0.00122222,0.00682666,-0.00201776
 ,0.00300940,0.00469344,0.00289543,-0.03152812,-0.04672598,-0.04197221,
 0.00119984,0.00534127,-0.00265254,-0.00013518,-0.00055111,0.00035234,-
 0.00046705,-0.00204463,-0.00014393,-0.00007886,-0.00167075,0.00193802,
 -0.00035889,0.00071168,-0.00047875,-0.00010795,-0.00117034,0.00036666,
 0.00016544,-0.00007654,0.00019323,-0.00032721,-0.00361578,0.00127761,0
 .03311031,0.03652596,0.00060313,-0.00018191,0.00018395,-0.00231394,0.0
 0167350,0.00045886,-0.02059151,-0.00399333,-0.01590022,0.00348379,-0.0
 0298801,-0.00346056,0.00063501,0.00007585,-0.00005450,0.00192993,-0.00
 198667,0.00094940,0.00661467,0.00124601,0.00960059,-0.13885846,-0.0420
 6847,-0.20862861,0.00262216,-0.00265948,-0.00255693,-0.00028786,0.0003
 4940,0.00049741,-0.00097036,0.00113765,0.00124410,-0.00109648,0.000769
 92,0.00071888,-0.00130486,-0.00037722,-0.00072604,-0.00012117,0.000368
 33,-0.00002718,0.00043831,0.00010642,0.00032911,-0.00016176,0.00130077
 ,0.00047976,0.14937939,0.04722724,0.21689197\\0.00000089,-0.00000065,-
 0.00000113,0.00000166,0.00000137,0.00000236,0.00000041,0.00000036,0.00
 000208,-0.00000148,-0.00000049,-0.00000191,0.00000176,-0.00000037,-0.0
 0000101,0.00000066,0.00000033,0.00000125,-0.00000174,-0.00000043,-0.00
 000193,-0.00000132,0.00000005,0.00000017,0.00000115,-0.00000107,-0.000
 00280,-0.00000245,0.00000098,0.00000289,-0.00000018,0.00000105,0.00000
 078,-0.00000027,-0.00000046,0.00000135,0.00000090,-0.00000001,0.000000
 14,0.00000050,-0.00000029,-0.00000092,-0.00000014,-0.00000037,-0.00000
 131,-0.00000010,0.,-0.00000001,-0.00000023,0.,0.00000001\\\@


 POCKETA-POCKETA
 BARON VON RICHTOFEN
 SLAUGHTERED THE ALLIES WITH
 HARDLY A CARE.
 KILLED EIGHTY-ONE WITH HIS
 BLOOD-COLORED TRIPLANE, THEN
 UN-AEROBATICALLY
 PLUNGED FROM THE AIR.
   -- TONY HOFFMAN
 Job cpu time:       0 days  0 hours  0 minutes 35.2 seconds.
 Elapsed time:       0 days  0 hours  0 minutes 43.0 seconds.
 File lengths (MBytes):  RWF=     82 Int=      0 D2E=      0 Chk=      7 Scr=      1
 Normal termination of Gaussian 16 at Fri Nov 15 21:27:59 2024.
