 Entering Gaussian System, Link 0=g16
 Input=/Volumes/SSD-PSM960U3-UW/CoMFA_calc/GCSHUYKULREZSJ-UHFFFAOYSA-N/opt0.gjf
 Output=/Volumes/SSD-PSM960U3-UW/CoMFA_calc/GCSHUYKULREZSJ-UHFFFAOYSA-N/opt0.log
 Initial command:
 /Applications/g16/l1.exe "/Users/mac_poclab/PycharmProjects/CoMFA_model/Gau-16673.inp" -scrdir="/Users/mac_poclab/PycharmProjects/CoMFA_model/"
 Entering Link 1 = /Applications/g16/l1.exe PID=     16674.
  
 Copyright (c) 1988,1990,1992,1993,1995,1998,2003,2009,2016,
            Gaussian, Inc.  All Rights Reserved.
  
 This is part of the Gaussian(R) 16 program.  It is based on
 the Gaussian(R) 09 system (copyright 2009, Gaussian, Inc.),
 the Gaussian(R) 03 system (copyright 2003, Gaussian, Inc.),
 the Gaussian(R) 98 system (copyright 1998, Gaussian, Inc.),
 the Gaussian(R) 94 system (copyright 1995, Gaussian, Inc.),
 the Gaussian 92(TM) system (copyright 1992, Gaussian, Inc.),
 the Gaussian 90(TM) system (copyright 1990, Gaussian, Inc.),
 the Gaussian 88(TM) system (copyright 1988, Gaussian, Inc.),
 the Gaussian 86(TM) system (copyright 1986, Carnegie Mellon
 University), and the Gaussian 82(TM) system (copyright 1983,
 Carnegie Mellon University). Gaussian is a federally registered
 trademark of Gaussian, Inc.
  
 This software contains proprietary and confidential information,
 including trade secrets, belonging to Gaussian, Inc.
  
 This software is provided under written license and may be
 used, copied, transmitted, or stored only in accord with that
 written license.
  
 The following legend is applicable only to US Government
 contracts under FAR:
  
                    RESTRICTED RIGHTS LEGEND
  
 Use, reproduction and disclosure by the US Government is
 subject to restrictions as set forth in subparagraphs (a)
 and (c) of the Commercial Computer Software - Restricted
 Rights clause in FAR 52.227-19.
  
 Gaussian, Inc.
 340 Quinnipiac St., Bldg. 40, Wallingford CT 06492
  
  
 ---------------------------------------------------------------
 Warning -- This program may not be used in any manner that
 competes with the business of Gaussian, Inc. or will provide
 assistance to any competitor of Gaussian, Inc.  The licensee
 of this program is prohibited from giving any competitor of
 Gaussian, Inc. access to this program.  By using this program,
 the user acknowledges that Gaussian, Inc. is engaged in the
 business of creating and licensing software in the field of
 computational chemistry and represents and warrants to the
 licensee that it is not a competitor of Gaussian, Inc. and that
 it will not use this program in any manner prohibited above.
 ---------------------------------------------------------------
  

 Cite this work as:
 Gaussian 16, Revision A.03,
 M. J. Frisch, G. W. Trucks, H. B. Schlegel, G. E. Scuseria, 
 M. A. Robb, J. R. Cheeseman, G. Scalmani, V. Barone, 
 G. A. Petersson, H. Nakatsuji, X. Li, M. Caricato, A. V. Marenich, 
 J. Bloino, B. G. Janesko, R. Gomperts, B. Mennucci, H. P. Hratchian, 
 J. V. Ortiz, A. F. Izmaylov, J. L. Sonnenberg, D. Williams-Young, 
 F. Ding, F. Lipparini, F. Egidi, J. Goings, B. Peng, A. Petrone, 
 T. Henderson, D. Ranasinghe, V. G. Zakrzewski, J. Gao, N. Rega, 
 G. Zheng, W. Liang, M. Hada, M. Ehara, K. Toyota, R. Fukuda, 
 J. Hasegawa, M. Ishida, T. Nakajima, Y. Honda, O. Kitao, H. Nakai, 
 T. Vreven, K. Throssell, J. A. Montgomery, Jr., J. E. Peralta, 
 F. Ogliaro, M. J. Bearpark, J. J. Heyd, E. N. Brothers, K. N. Kudin, 
 V. N. Staroverov, T. A. Keith, R. Kobayashi, J. Normand, 
 K. Raghavachari, A. P. Rendell, J. C. Burant, S. S. Iyengar, 
 J. Tomasi, M. Cossi, J. M. Millam, M. Klene, C. Adamo, R. Cammi, 
 J. W. Ochterski, R. L. Martin, K. Morokuma, O. Farkas, 
 J. B. Foresman, and D. J. Fox, Gaussian, Inc., Wallingford CT, 2016.
 
 ******************************************
 Gaussian 16:  EM64M-G16RevA.03 25-Dec-2016
                16-Nov-2024 
 ******************************************
 %nprocshared=30
 Will use up to   30 processors via shared memory.
 %mem=30GB
 %chk= 0.chk
 -------------------------------
 # freq opt=tight b3lyp 6-31g(d)
 -------------------------------
 1/7=10,18=20,19=15,26=3,38=1/1,3;
 2/9=110,12=2,17=6,18=5,40=1/2;
 3/5=1,6=6,7=1,11=2,25=1,30=1,71=1,74=-5/1,2,3;
 4//1;
 5/5=2,38=5/2;
 6/7=2,8=2,9=2,10=2,28=1/1;
 7//1,2,3,16;
 1/7=10,18=20,19=15,26=3/3(2);
 2/9=110/2;
 99//99;
 2/9=110/2;
 3/5=1,6=6,7=1,11=2,25=1,30=1,71=1,74=-5/1,2,3;
 4/5=5,16=3,69=1/1;
 5/5=2,38=5/2;
 7//1,2,3,16;
 1/7=10,18=20,19=15,26=3/3(-5);
 2/9=110/2;
 6/7=2,8=2,9=2,10=2,19=2,28=1/1;
 99/9=1/99;
 ---------
 good luck
 ---------
 Symbolic Z-matrix:
 Charge =  0 Multiplicity = 1
 O                    -0.08985  -1.72287  -1.60091 
 C                    -0.00971  -0.85637  -0.72874 
 C                    -1.25785  -0.42326  -0.04519 
 C                    -1.28711  -0.04211   1.30116 
 C                    -2.49472   0.3271    1.89988 
 C                    -3.67812   0.3048    1.16251 
 C                    -3.65997  -0.09281  -0.17322 
 C                    -2.45499  -0.46166  -0.77422 
 C                     1.32206  -0.26986  -0.40115 
 C                     2.4706   -0.90159  -0.86999 
 C                     3.70831  -0.33161  -0.58505 
 C                     3.76065   0.84849   0.14757 
 C                     2.56783   1.41431   0.56747 
 N                     1.35169   0.88468   0.31142 
 H                    -0.38242  -0.03495   1.9026 
 H                    -2.51131   0.62821   2.94434 
 H                    -4.61623   0.59113   1.63135 
 H                    -4.58273  -0.12028  -0.74699 
 H                    -2.45052  -0.78002  -1.81485 
 H                     2.40392  -1.81749  -1.44941 
 H                     4.62176  -0.80263  -0.93772 
 H                     4.70924   1.3194    0.38195 
 H                     2.55946   2.3394    1.13775 
 

 GradGradGradGradGradGradGradGradGradGradGradGradGradGradGradGradGradGrad
 Berny optimization.
 Initialization pass.
                           ----------------------------
                           !    Initial Parameters    !
                           ! (Angstroms and Degrees)  !
 --------------------------                            --------------------------
 ! Name  Definition              Value          Derivative Info.                !
 --------------------------------------------------------------------------------
 ! R1    R(1,2)                  1.232          estimate D2E/DX2                !
 ! R2    R(2,3)                  1.4875         estimate D2E/DX2                !
 ! R3    R(2,9)                  1.4916         estimate D2E/DX2                !
 ! R4    R(3,4)                  1.3996         estimate D2E/DX2                !
 ! R5    R(3,8)                  1.4022         estimate D2E/DX2                !
 ! R6    R(4,5)                  1.3975         estimate D2E/DX2                !
 ! R7    R(4,15)                 1.0864         estimate D2E/DX2                !
 ! R8    R(5,6)                  1.3945         estimate D2E/DX2                !
 ! R9    R(5,16)                 1.0871         estimate D2E/DX2                !
 ! R10   R(6,7)                  1.3938         estimate D2E/DX2                !
 ! R11   R(6,17)                 1.0871         estimate D2E/DX2                !
 ! R12   R(7,8)                  1.3961         estimate D2E/DX2                !
 ! R13   R(7,18)                 1.087          estimate D2E/DX2                !
 ! R14   R(8,19)                 1.0882         estimate D2E/DX2                !
 ! R15   R(9,10)                 1.3921         estimate D2E/DX2                !
 ! R16   R(9,14)                 1.357          estimate D2E/DX2                !
 ! R17   R(10,11)                1.3921         estimate D2E/DX2                !
 ! R18   R(10,20)                1.0858         estimate D2E/DX2                !
 ! R19   R(11,12)                1.39           estimate D2E/DX2                !
 ! R20   R(11,21)                1.0866         estimate D2E/DX2                !
 ! R21   R(12,13)                1.3854         estimate D2E/DX2                !
 ! R22   R(12,22)                1.0847         estimate D2E/DX2                !
 ! R23   R(13,14)                1.3509         estimate D2E/DX2                !
 ! R24   R(13,23)                1.0868         estimate D2E/DX2                !
 ! A1    A(1,2,3)              118.3921         estimate D2E/DX2                !
 ! A2    A(1,2,9)              119.3463         estimate D2E/DX2                !
 ! A3    A(3,2,9)              122.2594         estimate D2E/DX2                !
 ! A4    A(2,3,4)              122.6081         estimate D2E/DX2                !
 ! A5    A(2,3,8)              118.0014         estimate D2E/DX2                !
 ! A6    A(4,3,8)              119.3249         estimate D2E/DX2                !
 ! A7    A(3,4,5)              120.1411         estimate D2E/DX2                !
 ! A8    A(3,4,15)             121.1276         estimate D2E/DX2                !
 ! A9    A(5,4,15)             118.729          estimate D2E/DX2                !
 ! A10   A(4,5,6)              120.1683         estimate D2E/DX2                !
 ! A11   A(4,5,16)             119.8649         estimate D2E/DX2                !
 ! A12   A(6,5,16)             119.9663         estimate D2E/DX2                !
 ! A13   A(5,6,7)              120.0168         estimate D2E/DX2                !
 ! A14   A(5,6,17)             120.003          estimate D2E/DX2                !
 ! A15   A(7,6,17)             119.9789         estimate D2E/DX2                !
 ! A16   A(6,7,8)              119.9439         estimate D2E/DX2                !
 ! A17   A(6,7,18)             120.1353         estimate D2E/DX2                !
 ! A18   A(8,7,18)             119.9203         estimate D2E/DX2                !
 ! A19   A(3,8,7)              120.386          estimate D2E/DX2                !
 ! A20   A(3,8,19)             120.1111         estimate D2E/DX2                !
 ! A21   A(7,8,19)             119.5029         estimate D2E/DX2                !
 ! A22   A(2,9,10)             118.9611         estimate D2E/DX2                !
 ! A23   A(2,9,14)             117.9915         estimate D2E/DX2                !
 ! A24   A(10,9,14)            123.017          estimate D2E/DX2                !
 ! A25   A(9,10,11)            118.6061         estimate D2E/DX2                !
 ! A26   A(9,10,20)            120.7847         estimate D2E/DX2                !
 ! A27   A(11,10,20)           120.6087         estimate D2E/DX2                !
 ! A28   A(10,11,12)           119.2726         estimate D2E/DX2                !
 ! A29   A(10,11,21)           120.2324         estimate D2E/DX2                !
 ! A30   A(12,11,21)           120.494          estimate D2E/DX2                !
 ! A31   A(11,12,13)           118.2991         estimate D2E/DX2                !
 ! A32   A(11,12,22)           121.0244         estimate D2E/DX2                !
 ! A33   A(13,12,22)           120.6759         estimate D2E/DX2                !
 ! A34   A(12,13,14)           123.884          estimate D2E/DX2                !
 ! A35   A(12,13,23)           120.8862         estimate D2E/DX2                !
 ! A36   A(14,13,23)           115.2298         estimate D2E/DX2                !
 ! A37   A(9,14,13)            116.9185         estimate D2E/DX2                !
 ! D1    D(1,2,3,4)            146.0773         estimate D2E/DX2                !
 ! D2    D(1,2,3,8)            -30.955          estimate D2E/DX2                !
 ! D3    D(9,2,3,4)            -34.4647         estimate D2E/DX2                !
 ! D4    D(9,2,3,8)            148.503          estimate D2E/DX2                !
 ! D5    D(1,2,9,10)           -13.6278         estimate D2E/DX2                !
 ! D6    D(1,2,9,14)           164.4319         estimate D2E/DX2                !
 ! D7    D(3,2,9,10)           166.9193         estimate D2E/DX2                !
 ! D8    D(3,2,9,14)           -15.0211         estimate D2E/DX2                !
 ! D9    D(2,3,4,5)           -178.5469         estimate D2E/DX2                !
 ! D10   D(2,3,4,15)             0.8876         estimate D2E/DX2                !
 ! D11   D(8,3,4,5)             -1.5524         estimate D2E/DX2                !
 ! D12   D(8,3,4,15)           177.8821         estimate D2E/DX2                !
 ! D13   D(2,3,8,7)            178.6613         estimate D2E/DX2                !
 ! D14   D(2,3,8,19)            -1.3409         estimate D2E/DX2                !
 ! D15   D(4,3,8,7)              1.5286         estimate D2E/DX2                !
 ! D16   D(4,3,8,19)          -178.4736         estimate D2E/DX2                !
 ! D17   D(3,4,5,6)              0.6372         estimate D2E/DX2                !
 ! D18   D(3,4,5,16)          -179.6274         estimate D2E/DX2                !
 ! D19   D(15,4,5,6)          -178.8107         estimate D2E/DX2                !
 ! D20   D(15,4,5,16)            0.9247         estimate D2E/DX2                !
 ! D21   D(4,5,6,7)              0.3227         estimate D2E/DX2                !
 ! D22   D(4,5,6,17)           179.9093         estimate D2E/DX2                !
 ! D23   D(16,5,6,7)          -179.4124         estimate D2E/DX2                !
 ! D24   D(16,5,6,17)            0.1742         estimate D2E/DX2                !
 ! D25   D(5,6,7,8)             -0.3495         estimate D2E/DX2                !
 ! D26   D(5,6,7,18)           179.3982         estimate D2E/DX2                !
 ! D27   D(17,6,7,8)          -179.9362         estimate D2E/DX2                !
 ! D28   D(17,6,7,18)           -0.1885         estimate D2E/DX2                !
 ! D29   D(6,7,8,3)             -0.5828         estimate D2E/DX2                !
 ! D30   D(6,7,8,19)           179.4195         estimate D2E/DX2                !
 ! D31   D(18,7,8,3)           179.6689         estimate D2E/DX2                !
 ! D32   D(18,7,8,19)           -0.3288         estimate D2E/DX2                !
 ! D33   D(2,9,10,11)          178.5946         estimate D2E/DX2                !
 ! D34   D(2,9,10,20)           -1.1537         estimate D2E/DX2                !
 ! D35   D(14,9,10,11)           0.638          estimate D2E/DX2                !
 ! D36   D(14,9,10,20)        -179.1103         estimate D2E/DX2                !
 ! D37   D(2,9,14,13)         -178.4058         estimate D2E/DX2                !
 ! D38   D(10,9,14,13)          -0.4305         estimate D2E/DX2                !
 ! D39   D(9,10,11,12)          -0.3883         estimate D2E/DX2                !
 ! D40   D(9,10,11,21)         179.9816         estimate D2E/DX2                !
 ! D41   D(20,10,11,12)        179.3604         estimate D2E/DX2                !
 ! D42   D(20,10,11,21)         -0.2697         estimate D2E/DX2                !
 ! D43   D(10,11,12,13)         -0.0233         estimate D2E/DX2                !
 ! D44   D(10,11,12,22)       -179.7264         estimate D2E/DX2                !
 ! D45   D(21,11,12,13)        179.6058         estimate D2E/DX2                !
 ! D46   D(21,11,12,22)         -0.0973         estimate D2E/DX2                !
 ! D47   D(11,12,13,14)          0.2394         estimate D2E/DX2                !
 ! D48   D(11,12,13,23)       -179.6455         estimate D2E/DX2                !
 ! D49   D(22,12,13,14)        179.9436         estimate D2E/DX2                !
 ! D50   D(22,12,13,23)          0.0587         estimate D2E/DX2                !
 ! D51   D(12,13,14,9)          -0.018          estimate D2E/DX2                !
 ! D52   D(23,13,14,9)         179.8727         estimate D2E/DX2                !
 --------------------------------------------------------------------------------
 Trust Radius=3.00D-01 FncErr=1.00D-07 GrdErr=1.00D-06 EigMax=2.50D+02 EigMin=1.00D-04
 Number of steps in this run=    123 maximum allowed number of steps=    138.
 GradGradGradGradGradGradGradGradGradGradGradGradGradGradGradGradGradGrad

                          Input orientation:                          
 ---------------------------------------------------------------------
 Center     Atomic      Atomic             Coordinates (Angstroms)
 Number     Number       Type             X           Y           Z
 ---------------------------------------------------------------------
      1          8           0       -0.089851   -1.722868   -1.600906
      2          6           0       -0.009712   -0.856374   -0.728737
      3          6           0       -1.257847   -0.423256   -0.045194
      4          6           0       -1.287110   -0.042113    1.301164
      5          6           0       -2.494717    0.327104    1.899875
      6          6           0       -3.678122    0.304797    1.162514
      7          6           0       -3.659970   -0.092811   -0.173216
      8          6           0       -2.454989   -0.461664   -0.774216
      9          6           0        1.322061   -0.269858   -0.401154
     10          6           0        2.470601   -0.901592   -0.869985
     11          6           0        3.708308   -0.331610   -0.585047
     12          6           0        3.760649    0.848492    0.147570
     13          6           0        2.567827    1.414311    0.567474
     14          7           0        1.351693    0.884675    0.311415
     15          1           0       -0.382417   -0.034947    1.902602
     16          1           0       -2.511308    0.628209    2.944336
     17          1           0       -4.616233    0.591132    1.631354
     18          1           0       -4.582733   -0.120278   -0.746989
     19          1           0       -2.450518   -0.780017   -1.814848
     20          1           0        2.403924   -1.817491   -1.449409
     21          1           0        4.621760   -0.802633   -0.937718
     22          1           0        4.709244    1.319396    0.381945
     23          1           0        2.559459    2.339396    1.137750
 ---------------------------------------------------------------------
                    Distance matrix (angstroms):
                    1          2          3          4          5
     1  O    0.000000
     2  C    1.232036   0.000000
     3  C    2.339540   1.487502   0.000000
     4  C    3.560952   2.532837   1.399574   0.000000
     5  C    4.716061   3.805978   2.424084   1.397530   0.000000
     6  C    4.962218   4.287468   2.801134   2.420022   1.394506
     7  C    4.176258   3.770413   2.428122   2.794071   2.414922
     8  C    2.804983   2.477346   1.402176   2.418092   2.788278
     9  C    2.354599   1.491620   2.608863   3.123704   4.496542
    10  C    2.786513   2.484743   3.848430   4.424137   5.816889
    11  C    4.170561   3.757619   4.996252   5.347504   6.714630
    12  C    4.949284   4.229670   5.180715   5.253934   6.517056
    13  C    4.648335   3.671496   4.288099   4.185691   5.346650
    14  N    3.540382   2.442661   2.940672   2.966786   4.198686
    15  H    3.899903   2.781654   2.170500   1.086392   2.143105
    16  H    5.661293   4.685449   3.407937   2.155924   1.087124
    17  H    6.024138   5.374508   3.888258   3.404862   2.154680
    18  H    4.845973   4.631921   3.411624   3.881001   3.400860
    19  H    2.550978   2.672639   2.163658   3.406986   3.876446
    20  H    2.500164   2.696062   4.162244   4.933695   6.309808
    21  H    4.846228   4.636496   5.959052   6.364411   7.744190
    22  H    6.018171   5.313768   6.231008   6.217309   7.428715
    23  H    5.569656   4.505259   4.858336   4.527072   5.493164
                    6          7          8          9         10
     6  C    0.000000
     7  C    1.393771   0.000000
     8  C    2.415459   1.396149   0.000000
     9  C    5.270400   4.990384   3.800273   0.000000
    10  C    6.587353   6.222822   4.946124   1.392133   0.000000
    11  C    7.616977   7.383641   6.167571   2.394119   1.392116
    12  C    7.527352   7.486958   6.418750   2.738342   2.400507
    13  C    6.371575   6.450232   5.527033   2.307942   2.727480
    14  N    5.134167   5.129046   4.181154   1.357048   2.416280
    15  H    3.394824   3.880042   3.412184   2.875364   4.071612
    16  H    2.154284   3.399768   3.875387   5.166580   6.458231
    17  H    1.087130   2.153762   3.400900   6.335276   7.662124
    18  H    2.155275   1.086951   2.155129   5.916804   7.097542
    19  H    3.398311   2.151739   1.088248   4.060929   5.012480
    20  H    6.951081   6.432262   5.089517   2.159730   1.085840
    21  H    8.632810   8.347177   7.086845   3.385227   2.154499
    22  H    8.484492   8.505661   7.472290   3.822562   3.392881
    23  H    6.561069   6.805554   6.053614   3.272245   3.813515
                   11         12         13         14         15
    11  C    0.000000
    12  C    1.390003   0.000000
    13  C    2.382696   1.385386   0.000000
    14  N    2.799398   2.414793   1.350949   0.000000
    15  H    4.796920   4.585368   3.547796   2.526800   0.000000
    16  H    7.215360   6.870798   5.662600   4.681968   2.461130
    17  H    8.663825   8.511169   7.308911   6.119195   4.288444
    18  H    8.295315   8.446939   7.430564   6.111265   4.966917
    19  H    6.296397   6.714292   5.972798   4.663583   4.318750
    20  H    2.157865   3.390945   3.813034   3.392550   4.709261
    21  H    1.086570   2.155360   3.376253   3.885959   5.805045
    22  H    2.159344   1.084673   2.151534   3.386311   5.483763
    23  H    3.379668   2.155483   1.086769   2.063430   3.857089
                   16         17         18         19         20
    16  H    0.000000
    17  H    2.481130   0.000000
    18  H    4.298478   2.482688   0.000000
    19  H    4.963530   4.294960   2.474251   0.000000
    20  H    7.031781   8.035868   7.224078   4.977500   0.000000
    21  H    8.246109   9.689336   9.231721   7.126499   2.492100
    22  H    7.692851   9.436944   9.470374   7.777893   4.302141
    23  H    5.648415   7.402069   7.785444   6.599124   4.898703
                   21         22         23
    21  H    0.000000
    22  H    2.500434   0.000000
    23  H    4.293367   2.496641   0.000000
 Stoichiometry    C12H9NO
 Framework group  C1[X(C12H9NO)]
 Deg. of freedom    63
 Full point group                 C1      NOp   1
 Largest Abelian subgroup         C1      NOp   1
 Largest concise Abelian subgroup C1      NOp   1
                         Standard orientation:                         
 ---------------------------------------------------------------------
 Center     Atomic      Atomic             Coordinates (Angstroms)
 Number     Number       Type             X           Y           Z
 ---------------------------------------------------------------------
      1          8           0       -0.026931    2.287176    0.200424
      2          6           0       -0.029802    1.058973    0.103360
      3          6           0        1.276986    0.349333    0.066223
      4          6           0        1.462937   -0.918623    0.628822
      5          6           0        2.721293   -1.525422    0.591060
      6          6           0        3.800451   -0.865030    0.004589
      7          6           0        3.627539    0.406261   -0.539945
      8          6           0        2.371477    1.014755   -0.504214
      9          6           0       -1.331346    0.335662    0.015406
     10          6           0       -2.503889    1.017258    0.329420
     11          6           0       -3.717010    0.343816    0.216271
     12          6           0       -3.722927   -0.978539   -0.212039
     13          6           0       -2.510095   -1.577210   -0.511917
     14          7           0       -1.316290   -0.953316   -0.408728
     15          1           0        0.643173   -1.445810    1.108727
     16          1           0        2.859273   -2.513000    1.024059
     17          1           0        4.778484   -1.338945   -0.021995
     18          1           0        4.469575    0.926799   -0.988805
     19          1           0        2.246697    2.011419   -0.922991
     20          1           0       -2.474865    2.053671    0.651993
     21          1           0       -4.648239    0.850276    0.454901
     22          1           0       -4.652012   -1.528814   -0.314570
     23          1           0       -2.466299   -2.607195   -0.855835
 ---------------------------------------------------------------------
 Rotational constants (GHZ):           1.7526084           0.4197818           0.3527443
 Standard basis: 6-31G(d) (6D, 7F)
 There are   228 symmetry adapted cartesian basis functions of A   symmetry.
 There are   228 symmetry adapted basis functions of A   symmetry.
   228 basis functions,   428 primitive gaussians,   228 cartesian basis functions
    48 alpha electrons       48 beta electrons
       nuclear repulsion energy       779.7419847221 Hartrees.
 NAtoms=   23 NActive=   23 NUniq=   23 SFac= 1.00D+00 NAtFMM=   60 NAOKFM=F Big=F
 Integral buffers will be    131072 words long.
 Raffenetti 2 integral format.
 Two-electron integral symmetry is turned on.
 One-electron integrals computed using PRISM.
 NBasis=   228 RedAO= T EigKep=  4.64D-04  NBF=   228
 NBsUse=   228 1.00D-06 EigRej= -1.00D+00 NBFU=   228
 ExpMin= 1.61D-01 ExpMax= 5.48D+03 ExpMxC= 8.25D+02 IAcc=3 IRadAn=         5 AccDes= 0.00D+00
 Harris functional with IExCor=  402 and IRadAn=       5 diagonalized for initial guess.
 HarFok:  IExCor=  402 AccDes= 0.00D+00 IRadAn=         5 IDoV= 1 UseB2=F ITyADJ=14
 ICtDFT=  3500011 ScaDFX=  1.000000  1.000000  1.000000  1.000000
 FoFCou: FMM=F IPFlag=           0 FMFlag=      100000 FMFlg1=           0
         NFxFlg=           0 DoJE=T BraDBF=F KetDBF=T FulRan=T
         wScrn=  0.000000 ICntrl=       500 IOpCl=  0 I1Cent=   200000004 NGrid=           0
         NMat0=    1 NMatS0=      1 NMatT0=    0 NMatD0=    1 NMtDS0=    0 NMtDT0=    0
 Petite list used in FoFCou.
 Requested convergence on RMS density matrix=1.00D-08 within 128 cycles.
 Requested convergence on MAX density matrix=1.00D-06.
 Requested convergence on             energy=1.00D-06.
 No special actions if energy rises.
 Integral accuracy reduced to 1.0D-05 until final iterations.
 Initial convergence to 1.0D-05 achieved.  Increase integral accuracy.
 SCF Done:  E(RB3LYP) =  -592.667202889     A.U. after   15 cycles
            NFock= 15  Conv=0.51D-08     -V/T= 2.0096

 **********************************************************************

            Population analysis using the SCF density.

 **********************************************************************

 Orbital symmetries:
       Occupied  (A) (A) (A) (A) (A) (A) (A) (A) (A) (A) (A) (A)
                 (A) (A) (A) (A) (A) (A) (A) (A) (A) (A) (A) (A)
                 (A) (A) (A) (A) (A) (A) (A) (A) (A) (A) (A) (A)
                 (A) (A) (A) (A) (A) (A) (A) (A) (A) (A) (A) (A)
       Virtual   (A) (A) (A) (A) (A) (A) (A) (A) (A) (A) (A) (A)
                 (A) (A) (A) (A) (A) (A) (A) (A) (A) (A) (A) (A)
                 (A) (A) (A) (A) (A) (A) (A) (A) (A) (A) (A) (A)
                 (A) (A) (A) (A) (A) (A) (A) (A) (A) (A) (A) (A)
                 (A) (A) (A) (A) (A) (A) (A) (A) (A) (A) (A) (A)
                 (A) (A) (A) (A) (A) (A) (A) (A) (A) (A) (A) (A)
                 (A) (A) (A) (A) (A) (A) (A) (A) (A) (A) (A) (A)
                 (A) (A) (A) (A) (A) (A) (A) (A) (A) (A) (A) (A)
                 (A) (A) (A) (A) (A) (A) (A) (A) (A) (A) (A) (A)
                 (A) (A) (A) (A) (A) (A) (A) (A) (A) (A) (A) (A)
                 (A) (A) (A) (A) (A) (A) (A) (A) (A) (A) (A) (A)
                 (A) (A) (A) (A) (A) (A) (A) (A) (A) (A) (A) (A)
                 (A) (A) (A) (A) (A) (A) (A) (A) (A) (A) (A) (A)
                 (A) (A) (A) (A) (A) (A) (A) (A) (A) (A) (A) (A)
                 (A) (A) (A) (A) (A) (A) (A) (A) (A) (A) (A) (A)
 The electronic state is 1-A.
 Alpha  occ. eigenvalues --  -19.13455 -14.34542 -10.27284 -10.23649 -10.23466
 Alpha  occ. eigenvalues --  -10.21909 -10.21314 -10.20887 -10.19507 -10.19340
 Alpha  occ. eigenvalues --  -10.19258 -10.19128 -10.18965 -10.18954  -1.03241
 Alpha  occ. eigenvalues --   -0.94877  -0.85383  -0.81528  -0.78332  -0.75555
 Alpha  occ. eigenvalues --   -0.74358  -0.66943  -0.64167  -0.61774  -0.60284
 Alpha  occ. eigenvalues --   -0.56435  -0.53116  -0.50742  -0.49195  -0.47395
 Alpha  occ. eigenvalues --   -0.45521  -0.44876  -0.43754  -0.42333  -0.42083
 Alpha  occ. eigenvalues --   -0.41798  -0.40551  -0.38315  -0.37720  -0.35530
 Alpha  occ. eigenvalues --   -0.35227  -0.34212  -0.29627  -0.27809  -0.27230
 Alpha  occ. eigenvalues --   -0.25711  -0.24734  -0.23928
 Alpha virt. eigenvalues --   -0.07202  -0.03339  -0.00973   0.00172   0.05651
 Alpha virt. eigenvalues --    0.08970   0.09938   0.13638   0.14346   0.14641
 Alpha virt. eigenvalues --    0.15813   0.16506   0.17231   0.17807   0.18835
 Alpha virt. eigenvalues --    0.19195   0.23694   0.24235   0.28007   0.29356
 Alpha virt. eigenvalues --    0.29967   0.30768   0.31802   0.33101   0.33467
 Alpha virt. eigenvalues --    0.37091   0.38993   0.44376   0.47053   0.49441
 Alpha virt. eigenvalues --    0.50921   0.51656   0.52560   0.53997   0.54737
 Alpha virt. eigenvalues --    0.56218   0.57119   0.57697   0.58275   0.58580
 Alpha virt. eigenvalues --    0.59201   0.59308   0.59631   0.60689   0.60911
 Alpha virt. eigenvalues --    0.61535   0.62190   0.63512   0.64767   0.65341
 Alpha virt. eigenvalues --    0.65911   0.66833   0.69767   0.69931   0.74151
 Alpha virt. eigenvalues --    0.76453   0.77371   0.81324   0.81870   0.82785
 Alpha virt. eigenvalues --    0.83378   0.83677   0.84136   0.85318   0.87132
 Alpha virt. eigenvalues --    0.87908   0.88519   0.89348   0.91093   0.92868
 Alpha virt. eigenvalues --    0.94079   0.95465   0.96474   0.98852   1.01509
 Alpha virt. eigenvalues --    1.02112   1.04124   1.06698   1.08368   1.10621
 Alpha virt. eigenvalues --    1.11450   1.12256   1.15882   1.18358   1.21619
 Alpha virt. eigenvalues --    1.23012   1.23767   1.24923   1.27267   1.28063
 Alpha virt. eigenvalues --    1.30195   1.39548   1.41841   1.42747   1.44142
 Alpha virt. eigenvalues --    1.44430   1.45828   1.46732   1.47028   1.48977
 Alpha virt. eigenvalues --    1.49294   1.51294   1.52340   1.53124   1.55098
 Alpha virt. eigenvalues --    1.64190   1.69955   1.73557   1.76375   1.77529
 Alpha virt. eigenvalues --    1.78746   1.80764   1.83336   1.85006   1.86293
 Alpha virt. eigenvalues --    1.89554   1.90212   1.92194   1.92743   1.97470
 Alpha virt. eigenvalues --    1.99574   2.00592   2.04080   2.04689   2.06830
 Alpha virt. eigenvalues --    2.11644   2.13706   2.14208   2.14578   2.15604
 Alpha virt. eigenvalues --    2.16263   2.17092   2.17918   2.23727   2.28395
 Alpha virt. eigenvalues --    2.29012   2.30257   2.30561   2.31320   2.33269
 Alpha virt. eigenvalues --    2.38714   2.41446   2.48285   2.51446   2.56876
 Alpha virt. eigenvalues --    2.57928   2.59766   2.61135   2.62152   2.65505
 Alpha virt. eigenvalues --    2.67939   2.68261   2.71186   2.72978   2.74013
 Alpha virt. eigenvalues --    2.74810   2.76535   2.81240   2.83328   2.89518
 Alpha virt. eigenvalues --    2.95496   2.99817   3.14173   3.19721   3.38857
 Alpha virt. eigenvalues --    3.43229   3.95491   4.04619   4.08900   4.10561
 Alpha virt. eigenvalues --    4.11872   4.13937   4.18918   4.26087   4.33360
 Alpha virt. eigenvalues --    4.35002   4.35658   4.49722   4.60613   4.72892
          Condensed to atoms (all electrons):
               1          2          3          4          5          6
     1  O    8.069583   0.566538  -0.103682   0.002069  -0.000077  -0.000010
     2  C    0.566538   4.760698   0.260918  -0.040274   0.004965   0.000295
     3  C   -0.103682   0.260918   4.967932   0.522045  -0.012315  -0.035346
     4  C    0.002069  -0.040274   0.522045   4.954939   0.519973  -0.035357
     5  C   -0.000077   0.004965  -0.012315   0.519973   4.877525   0.547810
     6  C   -0.000010   0.000295  -0.035346  -0.035357   0.547810   4.849675
     7  C    0.000770   0.005781  -0.018952  -0.042756  -0.027185   0.541340
     8  C    0.003277  -0.025519   0.485262  -0.058797  -0.043793  -0.032036
     9  C   -0.102559   0.262841  -0.095904  -0.007351  -0.000019  -0.000001
    10  C    0.006738  -0.048715   0.013347   0.000058   0.000006   0.000000
    11  C    0.001088   0.005412  -0.000109   0.000004   0.000000   0.000000
    12  C   -0.000016   0.000134   0.000005  -0.000023  -0.000000   0.000000
    13  C   -0.000084   0.004559  -0.000060  -0.000077  -0.000017  -0.000000
    14  N    0.002180  -0.061001  -0.000037  -0.006035  -0.000184   0.000019
    15  H   -0.000000  -0.011460  -0.037758   0.352549  -0.043964   0.004794
    16  H    0.000001  -0.000131   0.003654  -0.039249   0.358278  -0.043781
    17  H    0.000000   0.000005   0.000530   0.004979  -0.043165   0.358668
    18  H    0.000001  -0.000149   0.003713   0.000782   0.004590  -0.043846
    19  H    0.010797  -0.008239  -0.044055   0.005734   0.000322   0.004583
    20  H    0.013367  -0.005483   0.000498  -0.000021   0.000000   0.000000
    21  H    0.000002  -0.000098   0.000002   0.000000   0.000000   0.000000
    22  H   -0.000000   0.000008  -0.000001   0.000000   0.000000  -0.000000
    23  H    0.000001  -0.000137   0.000009   0.000039   0.000002  -0.000000
               7          8          9         10         11         12
     1  O    0.000770   0.003277  -0.102559   0.006738   0.001088  -0.000016
     2  C    0.005781  -0.025519   0.262841  -0.048715   0.005412   0.000134
     3  C   -0.018952   0.485262  -0.095904   0.013347  -0.000109   0.000005
     4  C   -0.042756  -0.058797  -0.007351   0.000058   0.000004  -0.000023
     5  C   -0.027185  -0.043793  -0.000019   0.000006   0.000000  -0.000000
     6  C    0.541340  -0.032036  -0.000001   0.000000   0.000000   0.000000
     7  C    4.895246   0.506033  -0.000130  -0.000001  -0.000000  -0.000000
     8  C    0.506033   4.977503   0.009090  -0.000352  -0.000000   0.000000
     9  C   -0.000130   0.009090   5.021368   0.413809  -0.021033  -0.041610
    10  C   -0.000001  -0.000352   0.413809   5.083629   0.490723  -0.022725
    11  C   -0.000000  -0.000000  -0.021033   0.490723   4.880013   0.530259
    12  C   -0.000000   0.000000  -0.041610  -0.022725   0.530259   4.953890
    13  C    0.000000   0.000013  -0.044412  -0.046625  -0.029395   0.489201
    14  N   -0.000022  -0.000444   0.403268  -0.069194  -0.035669  -0.027809
    15  H    0.000270   0.005923   0.005540  -0.000017  -0.000005   0.000031
    16  H    0.004633   0.000806   0.000003  -0.000000  -0.000000  -0.000000
    17  H   -0.043660   0.004717   0.000000   0.000000  -0.000000   0.000000
    18  H    0.359305  -0.039506   0.000002  -0.000000   0.000000   0.000000
    19  H   -0.043992   0.357565   0.000687  -0.000015  -0.000000   0.000000
    20  H   -0.000000  -0.000007  -0.037119   0.354325  -0.042855   0.004896
    21  H    0.000000  -0.000000   0.003852  -0.040997   0.365157  -0.044880
    22  H    0.000000   0.000000   0.000410   0.004558  -0.041075   0.354329
    23  H   -0.000000  -0.000000   0.005111   0.000413   0.004059  -0.066158
              13         14         15         16         17         18
     1  O   -0.000084   0.002180  -0.000000   0.000001   0.000000   0.000001
     2  C    0.004559  -0.061001  -0.011460  -0.000131   0.000005  -0.000149
     3  C   -0.000060  -0.000037  -0.037758   0.003654   0.000530   0.003713
     4  C   -0.000077  -0.006035   0.352549  -0.039249   0.004979   0.000782
     5  C   -0.000017  -0.000184  -0.043964   0.358278  -0.043165   0.004590
     6  C   -0.000000   0.000019   0.004794  -0.043781   0.358668  -0.043846
     7  C    0.000000  -0.000022   0.000270   0.004633  -0.043660   0.359305
     8  C    0.000013  -0.000444   0.005923   0.000806   0.004717  -0.039506
     9  C   -0.044412   0.403268   0.005540   0.000003   0.000000   0.000002
    10  C   -0.046625  -0.069194  -0.000017  -0.000000   0.000000  -0.000000
    11  C   -0.029395  -0.035669  -0.000005  -0.000000  -0.000000   0.000000
    12  C    0.489201  -0.027809   0.000031  -0.000000   0.000000   0.000000
    13  C    4.788522   0.453045   0.000508   0.000000  -0.000000   0.000000
    14  N    0.453045   6.849211   0.008636  -0.000021   0.000000  -0.000000
    15  H    0.000508   0.008636   0.577220  -0.005453  -0.000171   0.000016
    16  H    0.000000  -0.000021  -0.005453   0.595347  -0.005655  -0.000182
    17  H   -0.000000   0.000000  -0.000171  -0.005655   0.597006  -0.005608
    18  H    0.000000  -0.000000   0.000016  -0.000182  -0.005608   0.592301
    19  H    0.000000  -0.000021  -0.000139   0.000017  -0.000167  -0.005185
    20  H    0.000148   0.004514  -0.000013  -0.000000   0.000000  -0.000000
    21  H    0.004979   0.000013   0.000000  -0.000000   0.000000  -0.000000
    22  H   -0.035977   0.004380  -0.000001   0.000000  -0.000000   0.000000
    23  H    0.379253  -0.054212  -0.000067   0.000000  -0.000000  -0.000000
              19         20         21         22         23
     1  O    0.010797   0.013367   0.000002  -0.000000   0.000001
     2  C   -0.008239  -0.005483  -0.000098   0.000008  -0.000137
     3  C   -0.044055   0.000498   0.000002  -0.000001   0.000009
     4  C    0.005734  -0.000021   0.000000   0.000000   0.000039
     5  C    0.000322   0.000000   0.000000   0.000000   0.000002
     6  C    0.004583   0.000000   0.000000  -0.000000  -0.000000
     7  C   -0.043992  -0.000000   0.000000   0.000000  -0.000000
     8  C    0.357565  -0.000007  -0.000000   0.000000  -0.000000
     9  C    0.000687  -0.037119   0.003852   0.000410   0.005111
    10  C   -0.000015   0.354325  -0.040997   0.004558   0.000413
    11  C   -0.000000  -0.042855   0.365157  -0.041075   0.004059
    12  C    0.000000   0.004896  -0.044880   0.354329  -0.066158
    13  C    0.000000   0.000148   0.004979  -0.035977   0.379253
    14  N   -0.000021   0.004514   0.000013   0.004380  -0.054212
    15  H   -0.000139  -0.000013   0.000000  -0.000001  -0.000067
    16  H    0.000017  -0.000000  -0.000000   0.000000   0.000000
    17  H   -0.000167   0.000000   0.000000  -0.000000  -0.000000
    18  H   -0.005185  -0.000000  -0.000000   0.000000  -0.000000
    19  H    0.568744  -0.000005  -0.000000   0.000000  -0.000000
    20  H   -0.000005   0.539890  -0.005039  -0.000108   0.000025
    21  H   -0.000000  -0.005039   0.571589  -0.005409  -0.000166
    22  H    0.000000  -0.000108  -0.005409   0.573480  -0.002293
    23  H   -0.000000   0.000025  -0.000166  -0.002293   0.585815
 Mulliken charges:
               1
     1  O   -0.469982
     2  C    0.329051
     3  C    0.090301
     4  C   -0.133232
     5  C   -0.142752
     6  C   -0.116807
     7  C   -0.136679
     8  C   -0.149734
     9  C    0.224158
    10  C   -0.138966
    11  C   -0.106573
    12  C   -0.129523
    13  C    0.036420
    14  N   -0.470618
    15  H    0.143563
    16  H    0.131732
    17  H    0.132521
    18  H    0.133767
    19  H    0.153369
    20  H    0.172986
    21  H    0.150994
    22  H    0.147698
    23  H    0.148306
 Sum of Mulliken charges =  -0.00000
 Mulliken charges with hydrogens summed into heavy atoms:
               1
     1  O   -0.469982
     2  C    0.329051
     3  C    0.090301
     4  C    0.010331
     5  C   -0.011020
     6  C    0.015715
     7  C   -0.002912
     8  C    0.003634
     9  C    0.224158
    10  C    0.034020
    11  C    0.044421
    12  C    0.018175
    13  C    0.184726
    14  N   -0.470618
 Electronic spatial extent (au):  <R**2>=           3034.3652
 Charge=             -0.0000 electrons
 Dipole moment (field-independent basis, Debye):
    X=             -1.9590    Y=             -2.1040    Z=              0.2069  Tot=              2.8822
 Quadrupole moment (field-independent basis, Debye-Ang):
   XX=            -58.4440   YY=            -80.2853   ZZ=            -80.6227
   XY=              0.0884   XZ=             -1.9021   YZ=             -2.1240
 Traceless Quadrupole moment (field-independent basis, Debye-Ang):
   XX=             14.6734   YY=             -7.1680   ZZ=             -7.5054
   XY=              0.0884   XZ=             -1.9021   YZ=             -2.1240
 Octapole moment (field-independent basis, Debye-Ang**2):
  XXX=            -31.0722  YYY=            -18.8458  ZZZ=              0.6045  XYY=             -5.8392
  XXY=             -5.7091  XXZ=             -5.9290  XZZ=             -1.4345  YZZ=              3.8676
  YYZ=             -1.2176  XYZ=            -12.6900
 Hexadecapole moment (field-independent basis, Debye-Ang**3):
 XXXX=          -2781.7436 YYYY=           -749.1301 ZZZZ=           -169.6640 XXXY=             -0.8021
 XXXZ=            -44.4319 YYYX=              6.2236 YYYZ=             -5.1328 ZZZX=             -1.1826
 ZZZY=              0.7232 XXYY=           -591.7213 XXZZ=           -595.0966 YYZZ=           -144.6360
 XXYZ=              0.8146 YYXZ=              5.2937 ZZXY=              3.1668
 N-N= 7.797419847221D+02 E-N=-2.936148366165D+03  KE= 5.870594827336D+02
 Calling FoFJK, ICntrl=      2127 FMM=F ISym2X=0 I1Cent= 0 IOpClX= 0 NMat=1 NMatS=1 NMatT=0.
 ***** Axes restored to original set *****
 -------------------------------------------------------------------
 Center     Atomic                   Forces (Hartrees/Bohr)
 Number     Number              X              Y              Z
 -------------------------------------------------------------------
      1        8           0.005718517    0.004254918    0.001113973
      2        6          -0.011279071   -0.013911824   -0.009928805
      3        6           0.002176768    0.003867814    0.002538365
      4        6          -0.003513512    0.004086285    0.007663177
      5        6           0.001910854   -0.002048364   -0.000161956
      6        6          -0.001608484    0.001086568    0.002309368
      7        6           0.003085720   -0.001558500   -0.003299020
      8        6          -0.007143791   -0.000124237   -0.001257294
      9        6          -0.000701788    0.014667743    0.010029569
     10        6           0.009194232   -0.003529610   -0.002830533
     11        6           0.001358954   -0.003741958   -0.002777245
     12        6           0.005728732   -0.001245695   -0.001383853
     13        6          -0.019707077   -0.000311562    0.000687806
     14        7           0.013748876   -0.005035011   -0.003117473
     15        1          -0.000473785    0.000629955   -0.003616120
     16        1           0.000343614   -0.000581769   -0.000198932
     17        1           0.000051807    0.000289561    0.000019260
     18        1           0.000414446    0.000119457   -0.000184438
     19        1           0.002960349    0.000284503    0.002238949
     20        1          -0.003222597    0.001210830    0.000950824
     21        1           0.000041005   -0.000272581    0.000082891
     22        1           0.000557167    0.000816375    0.000616283
     23        1           0.000359064    0.001047101    0.000505203
 -------------------------------------------------------------------
 Cartesian Forces:  Max     0.019707077 RMS     0.005130025

 GradGradGradGradGradGradGradGradGradGradGradGradGradGradGradGradGradGrad
 Berny optimization.
 FormGI is forming the generalized inverse of G from B-inverse, IUseBI=4.
 Internal  Forces:  Max     0.011899535 RMS     0.002654841
 Search for a local minimum.
 Step number   1 out of a maximum of  123
 All quantities printed in internal units (Hartrees-Bohrs-Radians)
 Mixed Optimization -- RFO/linear search
 Second derivative matrix not updated -- first step.
 ITU=  0
     Eigenvalues ---    0.00877   0.00904   0.00931   0.01730   0.01753
     Eigenvalues ---    0.02083   0.02102   0.02108   0.02127   0.02141
     Eigenvalues ---    0.02154   0.02158   0.02167   0.02193   0.02202
     Eigenvalues ---    0.02208   0.02237   0.02251   0.02292   0.02303
     Eigenvalues ---    0.15999   0.16000   0.16000   0.16000   0.16000
     Eigenvalues ---    0.16000   0.16000   0.16000   0.16000   0.21998
     Eigenvalues ---    0.22000   0.22000   0.22418   0.23468   0.24413
     Eigenvalues ---    0.24966   0.24990   0.24999   0.25000   0.33273
     Eigenvalues ---    0.33725   0.35016   0.35146   0.35147   0.35167
     Eigenvalues ---    0.35189   0.35212   0.35233   0.35298   0.35436
     Eigenvalues ---    0.41749   0.41974   0.43181   0.44647   0.45584
     Eigenvalues ---    0.46118   0.46159   0.46539   0.47082   0.47736
     Eigenvalues ---    0.52202   0.53778   0.90243
 RFO step:  Lambda=-2.91514431D-03 EMin= 8.76795582D-03
 Linear search not attempted -- first point.
 Iteration  1 RMS(Cart)=  0.06028384 RMS(Int)=  0.00107981
 Iteration  2 RMS(Cart)=  0.00201306 RMS(Int)=  0.00010082
 Iteration  3 RMS(Cart)=  0.00000170 RMS(Int)=  0.00010082
 Iteration  4 RMS(Cart)=  0.00000000 RMS(Int)=  0.00010082
 Variable       Old X    -DE/DX   Delta X   Delta X   Delta X     New X
                                 (Linear)    (Quad)   (Total)
    R1        2.32821  -0.00415   0.00000  -0.00459  -0.00459   2.32362
    R2        2.81097   0.00605   0.00000   0.01778   0.01778   2.82876
    R3        2.81875   0.00859   0.00000   0.02560   0.02560   2.84436
    R4        2.64481   0.00356   0.00000   0.00778   0.00776   2.65257
    R5        2.64973   0.00067   0.00000   0.00139   0.00140   2.65113
    R6        2.64095  -0.00205   0.00000  -0.00430  -0.00432   2.63662
    R7        2.05298  -0.00239   0.00000  -0.00673  -0.00673   2.04625
    R8        2.63523   0.00134   0.00000   0.00294   0.00293   2.63816
    R9        2.05437  -0.00036   0.00000  -0.00101  -0.00101   2.05336
   R10        2.63384   0.00323   0.00000   0.00685   0.00686   2.64071
   R11        2.05438   0.00004   0.00000   0.00011   0.00011   2.05449
   R12        2.63834  -0.00294   0.00000  -0.00643  -0.00641   2.63193
   R13        2.05404  -0.00026   0.00000  -0.00073  -0.00073   2.05331
   R14        2.05649  -0.00221   0.00000  -0.00626  -0.00626   2.05023
   R15        2.63075   0.00705   0.00000   0.01468   0.01469   2.64544
   R16        2.56445  -0.00930   0.00000  -0.01839  -0.01839   2.54606
   R17        2.63072  -0.00050   0.00000   0.00001   0.00002   2.63073
   R18        2.05194  -0.00133   0.00000  -0.00374  -0.00374   2.04820
   R19        2.62672   0.00385   0.00000   0.00937   0.00936   2.63609
   R20        2.05332   0.00013   0.00000   0.00035   0.00035   2.05367
   R21        2.61800   0.00910   0.00000   0.01894   0.01893   2.63693
   R22        2.04973   0.00097   0.00000   0.00273   0.00273   2.05246
   R23        2.55292  -0.01190   0.00000  -0.02249  -0.02250   2.53042
   R24        2.05370   0.00115   0.00000   0.00325   0.00325   2.05695
    A1        2.06633   0.00782   0.00000   0.03082   0.03055   2.09688
    A2        2.08299  -0.00547   0.00000  -0.02175  -0.02199   2.06100
    A3        2.13383  -0.00235   0.00000  -0.00942  -0.00968   2.12415
    A4        2.13991   0.00374   0.00000   0.01462   0.01460   2.15452
    A5        2.05951  -0.00282   0.00000  -0.01137  -0.01137   2.04814
    A6        2.08261  -0.00093   0.00000  -0.00403  -0.00415   2.07846
    A7        2.09686   0.00050   0.00000   0.00256   0.00244   2.09930
    A8        2.11407  -0.00273   0.00000  -0.01650  -0.01645   2.09763
    A9        2.07221   0.00223   0.00000   0.01390   0.01395   2.08616
   A10        2.09733  -0.00005   0.00000   0.00022   0.00009   2.09742
   A11        2.09204  -0.00040   0.00000  -0.00268  -0.00266   2.08937
   A12        2.09381   0.00045   0.00000   0.00252   0.00253   2.09634
   A13        2.09469  -0.00056   0.00000  -0.00237  -0.00243   2.09226
   A14        2.09445   0.00019   0.00000   0.00063   0.00066   2.09510
   A15        2.09403   0.00037   0.00000   0.00177   0.00180   2.09582
   A16        2.09342   0.00031   0.00000   0.00108   0.00105   2.09446
   A17        2.09676   0.00018   0.00000   0.00147   0.00148   2.09823
   A18        2.09300  -0.00048   0.00000  -0.00257  -0.00256   2.09044
   A19        2.10113   0.00075   0.00000   0.00297   0.00294   2.10407
   A20        2.09633  -0.00345   0.00000  -0.02038  -0.02036   2.07597
   A21        2.08572   0.00270   0.00000   0.01741   0.01743   2.10314
   A22        2.07626  -0.00291   0.00000  -0.01046  -0.01048   2.06579
   A23        2.05934   0.00253   0.00000   0.01108   0.01107   2.07041
   A24        2.14705   0.00037   0.00000  -0.00089  -0.00090   2.14615
   A25        2.07007   0.00010   0.00000   0.00292   0.00293   2.07300
   A26        2.10809  -0.00345   0.00000  -0.02233  -0.02234   2.08575
   A27        2.10502   0.00335   0.00000   0.01940   0.01940   2.12441
   A28        2.08170  -0.00362   0.00000  -0.01056  -0.01056   2.07114
   A29        2.09845   0.00167   0.00000   0.00440   0.00440   2.10285
   A30        2.10302   0.00196   0.00000   0.00617   0.00617   2.10919
   A31        2.06471  -0.00041   0.00000   0.00196   0.00195   2.06666
   A32        2.11227   0.00085   0.00000   0.00296   0.00297   2.11524
   A33        2.10619  -0.00044   0.00000  -0.00491  -0.00491   2.10129
   A34        2.16218  -0.00038   0.00000  -0.00299  -0.00300   2.15918
   A35        2.10986  -0.00019   0.00000  -0.00085  -0.00085   2.10901
   A36        2.01114   0.00057   0.00000   0.00385   0.00386   2.01499
   A37        2.04061   0.00394   0.00000   0.00959   0.00959   2.05020
    D1        2.54953   0.00118   0.00000   0.10244   0.10272   2.65225
    D2       -0.54027   0.00157   0.00000   0.12038   0.12072  -0.41955
    D3       -0.60152   0.00064   0.00000   0.05992   0.05959  -0.54193
    D4        2.59187   0.00102   0.00000   0.07787   0.07759   2.66946
    D5       -0.23785  -0.00003   0.00000  -0.00714  -0.00681  -0.24466
    D6        2.86988  -0.00021   0.00000  -0.01593  -0.01562   2.85425
    D7        2.91329   0.00044   0.00000   0.03549   0.03518   2.94847
    D8       -0.26217   0.00026   0.00000   0.02670   0.02637  -0.23580
    D9       -3.11623   0.00118   0.00000   0.04786   0.04798  -3.06826
   D10        0.01549   0.00105   0.00000   0.04277   0.04289   0.05838
   D11       -0.02709   0.00074   0.00000   0.02949   0.02949   0.00240
   D12        3.10463   0.00061   0.00000   0.02440   0.02440   3.12903
   D13        3.11823  -0.00042   0.00000  -0.02317  -0.02300   3.09523
   D14       -0.02340  -0.00040   0.00000  -0.02183  -0.02171  -0.04511
   D15        0.02668  -0.00019   0.00000  -0.00641  -0.00640   0.02028
   D16       -3.11495  -0.00018   0.00000  -0.00508  -0.00511  -3.12006
   D17        0.01112  -0.00081   0.00000  -0.03370  -0.03369  -0.02257
   D18       -3.13509  -0.00044   0.00000  -0.01794  -0.01799   3.13011
   D19       -3.12084  -0.00066   0.00000  -0.02856  -0.02847   3.13388
   D20        0.01614  -0.00029   0.00000  -0.01280  -0.01277   0.00337
   D21        0.00563   0.00034   0.00000   0.01455   0.01453   0.02016
   D22        3.14001   0.00045   0.00000   0.01909   0.01908  -3.12410
   D23       -3.13134  -0.00003   0.00000  -0.00121  -0.00122  -3.13256
   D24        0.00304   0.00009   0.00000   0.00333   0.00333   0.00637
   D25       -0.00610   0.00020   0.00000   0.00855   0.00854   0.00244
   D26        3.13109   0.00008   0.00000   0.00287   0.00289   3.13398
   D27       -3.14048   0.00009   0.00000   0.00402   0.00399  -3.13648
   D28       -0.00329  -0.00003   0.00000  -0.00166  -0.00165  -0.00494
   D29       -0.01017  -0.00029   0.00000  -0.01266  -0.01260  -0.02278
   D30        3.13146  -0.00031   0.00000  -0.01398  -0.01391   3.11755
   D31        3.13581  -0.00017   0.00000  -0.00700  -0.00699   3.12882
   D32       -0.00574  -0.00019   0.00000  -0.00832  -0.00830  -0.01404
   D33        3.11706  -0.00024   0.00000  -0.01189  -0.01182   3.10524
   D34       -0.02014  -0.00018   0.00000  -0.00942  -0.00940  -0.02954
   D35        0.01114  -0.00009   0.00000  -0.00286  -0.00283   0.00830
   D36       -3.12606  -0.00003   0.00000  -0.00039  -0.00042  -3.12648
   D37       -3.11377   0.00043   0.00000   0.01576   0.01583  -3.09794
   D38       -0.00751   0.00018   0.00000   0.00640   0.00640  -0.00111
   D39       -0.00678  -0.00002   0.00000  -0.00192  -0.00190  -0.00868
   D40        3.14127  -0.00007   0.00000  -0.00364  -0.00364   3.13763
   D41        3.13043  -0.00010   0.00000  -0.00449  -0.00448   3.12595
   D42       -0.00471  -0.00014   0.00000  -0.00621  -0.00622  -0.01093
   D43       -0.00041   0.00008   0.00000   0.00291   0.00289   0.00248
   D44       -3.13682  -0.00002   0.00000  -0.00096  -0.00100  -3.13781
   D45        3.13471   0.00013   0.00000   0.00463   0.00463   3.13934
   D46       -0.00170   0.00003   0.00000   0.00075   0.00074  -0.00095
   D47        0.00418   0.00002   0.00000   0.00084   0.00082   0.00500
   D48       -3.13540  -0.00001   0.00000  -0.00046  -0.00047  -3.13587
   D49        3.14061   0.00013   0.00000   0.00473   0.00470  -3.13788
   D50        0.00102   0.00009   0.00000   0.00342   0.00341   0.00444
   D51       -0.00031  -0.00013   0.00000  -0.00537  -0.00536  -0.00568
   D52        3.13937  -0.00010   0.00000  -0.00413  -0.00414   3.13523
         Item               Value     Threshold  Converged?
 Maximum Force            0.011900     0.000015     NO 
 RMS     Force            0.002655     0.000010     NO 
 Maximum Displacement     0.302085     0.000060     NO 
 RMS     Displacement     0.059732     0.000040     NO 
 Predicted change in Energy=-1.538119D-03
 GradGradGradGradGradGradGradGradGradGradGradGradGradGradGradGradGradGrad

                          Input orientation:                          
 ---------------------------------------------------------------------
 Center     Atomic      Atomic             Coordinates (Angstroms)
 Number     Number       Type             X           Y           Z
 ---------------------------------------------------------------------
      1          8           0       -0.073971   -1.656402   -1.651860
      2          6           0       -0.014090   -0.838226   -0.735923
      3          6           0       -1.264478   -0.388939   -0.046417
      4          6           0       -1.298253    0.048117    1.287060
      5          6           0       -2.514004    0.369497    1.891513
      6          6           0       -3.703060    0.284139    1.164993
      7          6           0       -3.677453   -0.147502   -0.163827
      8          6           0       -2.467603   -0.494398   -0.760238
      9          6           0        1.332485   -0.264405   -0.385209
     10          6           0        2.475651   -0.890728   -0.895726
     11          6           0        3.723310   -0.341702   -0.613012
     12          6           0        3.784557    0.817980    0.159836
     13          6           0        2.589697    1.374430    0.617905
     14          7           0        1.382107    0.855184    0.362669
     15          1           0       -0.381519    0.124909    1.858216
     16          1           0       -2.530496    0.696618    2.927562
     17          1           0       -4.647327    0.550698    1.633272
     18          1           0       -4.600396   -0.222777   -0.732278
     19          1           0       -2.440959   -0.851713   -1.784296
     20          1           0        2.369696   -1.782115   -1.503146
     21          1           0        4.629203   -0.807219   -0.992080
     22          1           0        4.735745    1.282903    0.402197
     23          1           0        2.591160    2.281651    1.219368
 ---------------------------------------------------------------------
                    Distance matrix (angstroms):
                    1          2          3          4          5
     1  O    0.000000
     2  C    1.229609   0.000000
     3  C    2.366688   1.496913   0.000000
     4  C    3.611302   2.554827   1.403681   0.000000
     5  C    4.755367   3.822511   2.427368   1.395242   0.000000
     6  C    4.987047   4.299033   2.804858   2.419443   1.396056
     7  C    4.180442   3.771554   2.427864   2.793552   2.417711
     8  C    2.806193   2.477607   1.402915   2.419325   2.789310
     9  C    2.349505   1.505169   2.621928   3.132880   4.514507
    10  C    2.767411   2.495416   3.868033   4.459634   5.852651
    11  C    4.150540   3.772241   5.020089   5.383152   6.758886
    12  C    4.928798   4.239708   5.195379   5.262916   6.547650
    13  C    4.629568   3.675378   4.290159   4.162095   5.355347
    14  N    3.533631   2.454365   2.952898   2.947912   4.213424
    15  H    3.948200   2.791450   2.161316   1.082829   2.146725
    16  H    5.704588   4.702039   3.409661   2.151795   1.086590
    17  H    6.048055   5.386008   3.892036   3.404225   2.156522
    18  H    4.836262   4.627417   3.409745   3.880111   3.404130
    19  H    2.503536   2.643664   2.149067   3.398338   3.874050
    20  H    2.451413   2.676190   4.155745   4.958714   6.324845
    21  H    4.824549   4.650457   5.983704   6.407871   7.792636
    22  H    5.999336   5.324982   6.244917   6.222283   7.457294
    23  H    5.554739   4.510446   4.858005   4.485620   5.492796
                    6          7          8          9         10
     6  C    0.000000
     7  C    1.397402   0.000000
     8  C    2.416399   1.392759   0.000000
     9  C    5.297238   5.016189   3.825469   0.000000
    10  C    6.618409   6.240893   4.960967   1.399906   0.000000
    11  C    7.661850   7.416925   6.194546   2.402897   1.392124
    12  C    7.573621   7.531170   6.454331   2.735195   2.397318
    13  C    6.409901   6.496503   5.564898   2.296215   2.726724
    14  N    5.179647   5.184759   4.231142   1.347317   2.414043
    15  H    3.396844   3.876345   3.404643   2.849970   4.096234
    16  H    2.156779   3.403636   3.875867   5.178865   6.496053
    17  H    1.087189   2.158172   3.401810   6.363710   7.694827
    18  H    2.159123   1.086566   2.150201   5.943169   7.109382
    19  H    3.403140   2.156560   1.084933   4.067094   4.996412
    20  H    6.947426   6.405758   5.060592   2.151518   1.083861
    21  H    8.675865   8.373874   7.107480   3.395776   2.157324
    22  H    8.531870   8.552680   7.509879   3.820517   3.393715
    23  H    6.603803   6.863637   6.100522   3.262106   3.814571
                   11         12         13         14         15
    11  C    0.000000
    12  C    1.394958   0.000000
    13  C    2.396944   1.395405   0.000000
    14  N    2.804589   2.411284   1.339043   0.000000
    15  H    4.813970   4.552036   3.453664   2.424941   0.000000
    16  H    7.261120   6.896009   5.657767   4.681056   2.467479
    17  H    8.712619   8.563827   7.354184   6.169378   4.292903
    18  H    8.325409   8.496263   7.488091   6.176670   4.962910
    19  H    6.295254   6.732353   6.002815   4.705187   4.296857
    20  H    2.167809   3.395267   3.809335   3.378156   4.743909
    21  H    1.086757   2.163702   3.392820   3.891344   5.839553
    22  H    2.166798   1.086117   2.158802   3.381034   5.444936
    23  H    3.394313   2.165442   1.088490   2.056830   3.727798
                   16         17         18         19         20
    16  H    0.000000
    17  H    2.485449   0.000000
    18  H    4.303976   2.489236   0.000000
    19  H    4.960540   4.302858   2.483036   0.000000
    20  H    7.056002   8.032294   7.183867   4.907860   0.000000
    21  H    8.299784   9.736038   9.251733   7.114547   2.513361
    22  H    7.714885   9.491771   9.524580   7.800155   4.315420
    23  H    5.626865   7.454073   7.861269   6.645463   4.896460
                   21         22         23
    21  H    0.000000
    22  H    2.514750   0.000000
    23  H    4.311060   2.502901   0.000000
 Stoichiometry    C12H9NO
 Framework group  C1[X(C12H9NO)]
 Deg. of freedom    63
 Full point group                 C1      NOp   1
 Largest Abelian subgroup         C1      NOp   1
 Largest concise Abelian subgroup C1      NOp   1
                         Standard orientation:                         
 ---------------------------------------------------------------------
 Center     Atomic      Atomic             Coordinates (Angstroms)
 Number     Number       Type             X           Y           Z
 ---------------------------------------------------------------------
      1          8           0       -0.051584    2.282418    0.159865
      2          6           0       -0.025927    1.054325    0.104486
      3          6           0        1.283774    0.331594    0.048866
      4          6           0        1.470148   -0.970653    0.538496
      5          6           0        2.739633   -1.549509    0.532643
      6          6           0        3.828906   -0.846687    0.014477
      7          6           0        3.651010    0.449152   -0.477341
      8          6           0        2.389385    1.038374   -0.447376
      9          6           0       -1.338046    0.320860    0.027640
     10          6           0       -2.511845    1.025431    0.320065
     11          6           0       -3.733629    0.367450    0.209091
     12          6           0       -3.740743   -0.966258   -0.199663
     13          6           0       -2.519688   -1.582360   -0.476422
     14          7           0       -1.335268   -0.967379   -0.366940
     15          1           0        0.631323   -1.527959    0.936366
     16          1           0        2.875255   -2.554149    0.923774
     17          1           0        4.814100   -1.306071   -0.003930
     18          1           0        4.496275    1.003875   -0.875383
     19          1           0        2.246394    2.052096   -0.806542
     20          1           0       -2.449726    2.065279    0.619420
     21          1           0       -4.661743    0.886649    0.432873
     22          1           0       -4.670580   -1.517882   -0.303414
     23          1           0       -2.479613   -2.619844   -0.803272
 ---------------------------------------------------------------------
 Rotational constants (GHZ):           1.7671407           0.4171974           0.3486484
 Standard basis: 6-31G(d) (6D, 7F)
 There are   228 symmetry adapted cartesian basis functions of A   symmetry.
 There are   228 symmetry adapted basis functions of A   symmetry.
   228 basis functions,   428 primitive gaussians,   228 cartesian basis functions
    48 alpha electrons       48 beta electrons
       nuclear repulsion energy       778.6599892931 Hartrees.
 NAtoms=   23 NActive=   23 NUniq=   23 SFac= 1.00D+00 NAtFMM=   60 NAOKFM=F Big=F
 Integral buffers will be    131072 words long.
 Raffenetti 2 integral format.
 Two-electron integral symmetry is turned on.
 One-electron integrals computed using PRISM.
 NBasis=   228 RedAO= T EigKep=  4.64D-04  NBF=   228
 NBsUse=   228 1.00D-06 EigRej= -1.00D+00 NBFU=   228
 Initial guess from the checkpoint file:  "0.chk"
 B after Tr=    -0.000000    0.000000    0.000000
         Rot=    0.999993   -0.003703   -0.000007   -0.000398 Ang=  -0.43 deg.
 ExpMin= 1.61D-01 ExpMax= 5.48D+03 ExpMxC= 8.25D+02 IAcc=2 IRadAn=         4 AccDes= 0.00D+00
 Harris functional with IExCor=  402 and IRadAn=       4 diagonalized for initial guess.
 HarFok:  IExCor=  402 AccDes= 0.00D+00 IRadAn=         4 IDoV= 1 UseB2=F ITyADJ=14
 ICtDFT=  3500011 ScaDFX=  1.000000  1.000000  1.000000  1.000000
 FoFCou: FMM=F IPFlag=           0 FMFlag=      100000 FMFlg1=           0
         NFxFlg=           0 DoJE=T BraDBF=F KetDBF=T FulRan=T
         wScrn=  0.000000 ICntrl=       500 IOpCl=  0 I1Cent=   200000004 NGrid=           0
         NMat0=    1 NMatS0=      1 NMatT0=    0 NMatD0=    1 NMtDS0=    0 NMtDT0=    0
 Petite list used in FoFCou.
 Requested convergence on RMS density matrix=1.00D-08 within 128 cycles.
 Requested convergence on MAX density matrix=1.00D-06.
 Requested convergence on             energy=1.00D-06.
 No special actions if energy rises.
 Integral accuracy reduced to 1.0D-05 until final iterations.
 Initial convergence to 1.0D-05 achieved.  Increase integral accuracy.
 SCF Done:  E(RB3LYP) =  -592.668885590     A.U. after   13 cycles
            NFock= 13  Conv=0.66D-08     -V/T= 2.0096
 Calling FoFJK, ICntrl=      2127 FMM=F ISym2X=0 I1Cent= 0 IOpClX= 0 NMat=1 NMatS=1 NMatT=0.
 ***** Axes restored to original set *****
 -------------------------------------------------------------------
 Center     Atomic                   Forces (Hartrees/Bohr)
 Number     Number              X              Y              Z
 -------------------------------------------------------------------
      1        8          -0.000207809    0.001618459    0.003087035
      2        6          -0.003874116   -0.001261931   -0.006959201
      3        6           0.002627331   -0.000924668    0.001555225
      4        6          -0.000939857   -0.000181910    0.002643079
      5        6           0.000322704    0.000447989   -0.001354964
      6        6          -0.000158541    0.000060866    0.000251317
      7        6           0.000771416   -0.000351271   -0.000557932
      8        6          -0.002580529   -0.000362737   -0.000160995
      9        6           0.000258799    0.003673761    0.004516866
     10        6           0.002476999   -0.000622105   -0.000505538
     11        6          -0.000915943    0.000173674    0.000078070
     12        6           0.001130333   -0.000279706   -0.000345058
     13        6          -0.003787780    0.000030602    0.000258412
     14        7           0.004452926   -0.002456105   -0.001955028
     15        1          -0.000074374    0.000202525   -0.000922295
     16        1           0.000058457   -0.000153198    0.000044289
     17        1           0.000040536   -0.000173593   -0.000069910
     18        1          -0.000113287    0.000214384    0.000040510
     19        1           0.000808258   -0.000240036   -0.000071962
     20        1          -0.001075898    0.000074720    0.000109971
     21        1          -0.000038252    0.000148366    0.000185965
     22        1          -0.000212016    0.000204608    0.000120132
     23        1           0.001030645    0.000157307    0.000012011
 -------------------------------------------------------------------
 Cartesian Forces:  Max     0.006959201 RMS     0.001688559

 GradGradGradGradGradGradGradGradGradGradGradGradGradGradGradGradGradGrad
 Berny optimization.
 Using GEDIIS/GDIIS optimizer.
 FormGI is forming the generalized inverse of G from B-inverse, IUseBI=4.
 Internal  Forces:  Max     0.003968783 RMS     0.000906068
 Search for a local minimum.
 Step number   2 out of a maximum of  123
 All quantities printed in internal units (Hartrees-Bohrs-Radians)
 Mixed Optimization -- En-DIIS/RFO-DIIS
 Update second derivatives using D2CorX and points    1    2
 DE= -1.68D-03 DEPred=-1.54D-03 R= 1.09D+00
 TightC=F SS=  1.41D+00  RLast= 2.35D-01 DXNew= 5.0454D-01 7.0504D-01
 Trust test= 1.09D+00 RLast= 2.35D-01 DXMaxT set to 5.05D-01
 ITU=  1  0
 Use linear search instead of GDIIS.
     Eigenvalues ---    0.00795   0.00878   0.01101   0.01733   0.01751
     Eigenvalues ---    0.02085   0.02098   0.02106   0.02140   0.02154
     Eigenvalues ---    0.02158   0.02165   0.02193   0.02201   0.02207
     Eigenvalues ---    0.02235   0.02246   0.02261   0.02293   0.02304
     Eigenvalues ---    0.14220   0.15998   0.15999   0.15999   0.16000
     Eigenvalues ---    0.16000   0.16000   0.16000   0.16124   0.21550
     Eigenvalues ---    0.21998   0.22082   0.22380   0.22458   0.23494
     Eigenvalues ---    0.24489   0.24960   0.24994   0.27367   0.31630
     Eigenvalues ---    0.34308   0.35103   0.35146   0.35150   0.35169
     Eigenvalues ---    0.35198   0.35207   0.35246   0.35352   0.35499
     Eigenvalues ---    0.41772   0.41903   0.43168   0.44713   0.45539
     Eigenvalues ---    0.45840   0.46176   0.46556   0.47135   0.47970
     Eigenvalues ---    0.50800   0.53923   0.89864
 RFO step:  Lambda=-9.84098792D-04 EMin= 7.94681281D-03
 Quartic linear search produced a step of  0.18667.
 Iteration  1 RMS(Cart)=  0.08526983 RMS(Int)=  0.00194874
 Iteration  2 RMS(Cart)=  0.00447389 RMS(Int)=  0.00053207
 Iteration  3 RMS(Cart)=  0.00000647 RMS(Int)=  0.00053206
 Iteration  4 RMS(Cart)=  0.00000000 RMS(Int)=  0.00053206
 Variable       Old X    -DE/DX   Delta X   Delta X   Delta X     New X
                                 (Linear)    (Quad)   (Total)
    R1        2.32362  -0.00337  -0.00086  -0.00512  -0.00598   2.31764
    R2        2.82876  -0.00043   0.00332   0.00126   0.00458   2.83333
    R3        2.84436   0.00397   0.00478   0.01805   0.02283   2.86718
    R4        2.65257   0.00062   0.00145   0.00293   0.00439   2.65696
    R5        2.65113   0.00123   0.00026   0.00353   0.00379   2.65491
    R6        2.63662  -0.00054  -0.00081  -0.00204  -0.00284   2.63378
    R7        2.04625  -0.00054  -0.00126  -0.00284  -0.00410   2.04215
    R8        2.63816   0.00017   0.00055   0.00080   0.00135   2.63951
    R9        2.05336  -0.00000  -0.00019  -0.00017  -0.00036   2.05300
   R10        2.64071   0.00002   0.00128   0.00102   0.00229   2.64300
   R11        2.05449  -0.00011   0.00002  -0.00034  -0.00032   2.05417
   R12        2.63193  -0.00096  -0.00120  -0.00348  -0.00468   2.62725
   R13        2.05331   0.00006  -0.00014   0.00009  -0.00005   2.05327
   R14        2.05023   0.00017  -0.00117  -0.00041  -0.00158   2.04864
   R15        2.64544   0.00104   0.00274   0.00488   0.00763   2.65307
   R16        2.54606  -0.00265  -0.00343  -0.00889  -0.01232   2.53374
   R17        2.63073  -0.00040   0.00000  -0.00080  -0.00080   2.62993
   R18        2.04820  -0.00002  -0.00070  -0.00064  -0.00134   2.04686
   R19        2.63609  -0.00026   0.00175   0.00102   0.00277   2.63885
   R20        2.05367  -0.00016   0.00007  -0.00048  -0.00042   2.05326
   R21        2.63693   0.00036   0.00353   0.00386   0.00739   2.64432
   R22        2.05246  -0.00007   0.00051   0.00019   0.00070   2.05316
   R23        2.53042  -0.00189  -0.00420  -0.00775  -0.01195   2.51848
   R24        2.05695   0.00014   0.00061   0.00097   0.00158   2.05853
    A1        2.09688  -0.00152   0.00570  -0.00011   0.00233   2.09921
    A2        2.06100  -0.00040  -0.00410  -0.00301  -0.01033   2.05067
    A3        2.12415   0.00198  -0.00181   0.01013   0.00509   2.12924
    A4        2.15452   0.00252   0.00273   0.01389   0.01658   2.17110
    A5        2.04814  -0.00239  -0.00212  -0.01334  -0.01548   2.03266
    A6        2.07846  -0.00014  -0.00078  -0.00100  -0.00180   2.07666
    A7        2.09930  -0.00056   0.00046  -0.00229  -0.00188   2.09742
    A8        2.09763  -0.00036  -0.00307  -0.00580  -0.00893   2.08870
    A9        2.08616   0.00093   0.00260   0.00835   0.01090   2.09706
   A10        2.09742   0.00054   0.00002   0.00274   0.00275   2.10017
   A11        2.08937  -0.00034  -0.00050  -0.00230  -0.00281   2.08656
   A12        2.09634  -0.00019   0.00047  -0.00037   0.00009   2.09643
   A13        2.09226   0.00012  -0.00045  -0.00018  -0.00064   2.09161
   A14        2.09510   0.00002   0.00012   0.00058   0.00071   2.09581
   A15        2.09582  -0.00014   0.00034  -0.00040  -0.00006   2.09576
   A16        2.09446  -0.00024   0.00020  -0.00140  -0.00122   2.09325
   A17        2.09823  -0.00004   0.00028  -0.00018   0.00010   2.09833
   A18        2.09044   0.00028  -0.00048   0.00160   0.00113   2.09157
   A19        2.10407   0.00029   0.00055   0.00218   0.00272   2.10679
   A20        2.07597  -0.00099  -0.00380  -0.01018  -0.01398   2.06199
   A21        2.10314   0.00070   0.00325   0.00800   0.01126   2.11440
   A22        2.06579  -0.00201  -0.00196  -0.01102  -0.01300   2.05279
   A23        2.07041   0.00301   0.00207   0.01598   0.01801   2.08842
   A24        2.14615  -0.00101  -0.00017  -0.00532  -0.00549   2.14066
   A25        2.07300   0.00005   0.00055   0.00123   0.00177   2.07477
   A26        2.08575  -0.00114  -0.00417  -0.01198  -0.01615   2.06961
   A27        2.12441   0.00108   0.00362   0.01073   0.01435   2.13877
   A28        2.07114   0.00003  -0.00197  -0.00047  -0.00245   2.06869
   A29        2.10285   0.00016   0.00082   0.00136   0.00218   2.10503
   A30        2.10919  -0.00018   0.00115  -0.00088   0.00027   2.10946
   A31        2.06666  -0.00045   0.00036  -0.00149  -0.00114   2.06552
   A32        2.11524   0.00054   0.00055   0.00368   0.00424   2.11948
   A33        2.10129  -0.00009  -0.00092  -0.00219  -0.00310   2.09818
   A34        2.15918  -0.00038  -0.00056  -0.00273  -0.00329   2.15589
   A35        2.10901  -0.00087  -0.00016  -0.00680  -0.00696   2.10205
   A36        2.01499   0.00125   0.00072   0.00953   0.01025   2.02524
   A37        2.05020   0.00176   0.00179   0.00878   0.01058   2.06078
    D1        2.65225  -0.00032   0.01917  -0.02479  -0.00577   2.64648
    D2       -0.41955  -0.00023   0.02253  -0.01707   0.00535  -0.41420
    D3       -0.54193   0.00110   0.01112   0.13488   0.14611  -0.39582
    D4        2.66946   0.00119   0.01448   0.14260   0.15723   2.82669
    D5       -0.24466   0.00064  -0.00127   0.06984   0.06833  -0.17634
    D6        2.85425   0.00048  -0.00292   0.06064   0.05742   2.91167
    D7        2.94847  -0.00071   0.00657  -0.08675  -0.07988   2.86859
    D8       -0.23580  -0.00087   0.00492  -0.09595  -0.09079  -0.32658
    D9       -3.06826  -0.00008   0.00896  -0.00204   0.00706  -3.06120
   D10        0.05838   0.00030   0.00801   0.01863   0.02664   0.08502
   D11        0.00240  -0.00026   0.00550  -0.01034  -0.00481  -0.00242
   D12        3.12903   0.00013   0.00456   0.01033   0.01477  -3.13938
   D13        3.09523   0.00016  -0.00429   0.00035  -0.00384   3.09139
   D14       -0.04511   0.00012  -0.00405  -0.00094  -0.00489  -0.05000
   D15        0.02028   0.00013  -0.00119   0.00707   0.00584   0.02612
   D16       -3.12006   0.00009  -0.00095   0.00578   0.00480  -3.11527
   D17       -0.02257   0.00027  -0.00629   0.00940   0.00314  -0.01943
   D18        3.13011   0.00009  -0.00336   0.00257  -0.00077   3.12934
   D19        3.13388  -0.00010  -0.00531  -0.01100  -0.01637   3.11751
   D20        0.00337  -0.00028  -0.00238  -0.01784  -0.02027  -0.01690
   D21        0.02016  -0.00013   0.00271  -0.00499  -0.00232   0.01785
   D22       -3.12410  -0.00015   0.00356  -0.00525  -0.00170  -3.12579
   D23       -3.13256   0.00005  -0.00023   0.00185   0.00159  -3.13097
   D24        0.00637   0.00003   0.00062   0.00160   0.00221   0.00858
   D25        0.00244   0.00001   0.00159   0.00173   0.00332   0.00576
   D26        3.13398   0.00009   0.00054   0.00437   0.00494   3.13892
   D27       -3.13648   0.00003   0.00075   0.00198   0.00270  -3.13379
   D28       -0.00494   0.00011  -0.00031   0.00462   0.00432  -0.00063
   D29       -0.02278  -0.00000  -0.00235  -0.00279  -0.00511  -0.02788
   D30        3.11755   0.00004  -0.00260  -0.00150  -0.00405   3.11350
   D31        3.12882  -0.00008  -0.00130  -0.00542  -0.00672   3.12211
   D32       -0.01404  -0.00004  -0.00155  -0.00413  -0.00566  -0.01970
   D33        3.10524  -0.00010  -0.00221  -0.01018  -0.01228   3.09296
   D34       -0.02954  -0.00007  -0.00175  -0.00766  -0.00936  -0.03890
   D35        0.00830  -0.00004  -0.00053  -0.00110  -0.00162   0.00668
   D36       -3.12648  -0.00000  -0.00008   0.00142   0.00129  -3.12519
   D37       -3.09794   0.00023   0.00295   0.01204   0.01510  -3.08284
   D38       -0.00111   0.00004   0.00120   0.00228   0.00347   0.00236
   D39       -0.00868  -0.00000  -0.00035  -0.00119  -0.00152  -0.01019
   D40        3.13763  -0.00001  -0.00068  -0.00118  -0.00185   3.13578
   D41        3.12595  -0.00005  -0.00084  -0.00386  -0.00468   3.12126
   D42       -0.01093  -0.00005  -0.00116  -0.00385  -0.00502  -0.01595
   D43        0.00248   0.00003   0.00054   0.00217   0.00269   0.00518
   D44       -3.13781   0.00002  -0.00019   0.00106   0.00085  -3.13696
   D45        3.13934   0.00004   0.00086   0.00217   0.00304  -3.14081
   D46       -0.00095   0.00002   0.00014   0.00106   0.00119   0.00024
   D47        0.00500  -0.00003   0.00015  -0.00104  -0.00091   0.00409
   D48       -3.13587  -0.00001  -0.00009  -0.00038  -0.00047  -3.13634
   D49       -3.13788  -0.00002   0.00088   0.00007   0.00092  -3.13696
   D50        0.00444   0.00001   0.00064   0.00073   0.00136   0.00580
   D51       -0.00568  -0.00001  -0.00100  -0.00119  -0.00217  -0.00785
   D52        3.13523  -0.00003  -0.00077  -0.00182  -0.00261   3.13262
         Item               Value     Threshold  Converged?
 Maximum Force            0.003969     0.000015     NO 
 RMS     Force            0.000906     0.000010     NO 
 Maximum Displacement     0.360065     0.000060     NO 
 RMS     Displacement     0.085584     0.000040     NO 
 Predicted change in Energy=-5.691195D-04
 GradGradGradGradGradGradGradGradGradGradGradGradGradGradGradGradGradGrad

                          Input orientation:                          
 ---------------------------------------------------------------------
 Center     Atomic      Atomic             Coordinates (Angstroms)
 Number     Number       Type             X           Y           Z
 ---------------------------------------------------------------------
      1          8           0       -0.076907   -1.558636   -1.696315
      2          6           0       -0.031115   -0.715677   -0.806659
      3          6           0       -1.279200   -0.317954   -0.077205
      4          6           0       -1.309494    0.150089    1.248262
      5          6           0       -2.528778    0.404881    1.873510
      6          6           0       -3.728250    0.219885    1.182131
      7          6           0       -3.706669   -0.243720   -0.137235
      8          6           0       -2.492848   -0.525351   -0.753847
      9          6           0        1.336656   -0.200054   -0.399994
     10          6           0        2.461708   -0.869632   -0.906927
     11          6           0        3.728716   -0.383483   -0.598415
     12          6           0        3.828807    0.761219    0.195079
     13          6           0        2.648423    1.361300    0.647490
     14          7           0        1.431578    0.896552    0.365634
     15          1           0       -0.382522    0.315447    1.778552
     16          1           0       -2.540736    0.755363    2.901752
     17          1           0       -4.676316    0.433889    1.668940
     18          1           0       -4.636095   -0.392226   -0.680083
     19          1           0       -2.454370   -0.910070   -1.766651
     20          1           0        2.308193   -1.740982   -1.531747
     21          1           0        4.618784   -0.882816   -0.971252
     22          1           0        4.793781    1.183706    0.461128
     23          1           0        2.686652    2.258269    1.264432
 ---------------------------------------------------------------------
                    Distance matrix (angstroms):
                    1          2          3          4          5
     1  O    0.000000
     2  C    1.226443   0.000000
     3  C    2.367766   1.499334   0.000000
     4  C    3.620711   2.570313   1.406003   0.000000
     5  C    4.755073   3.831093   2.426772   1.393738   0.000000
     6  C    4.978042   4.301090   2.805895   2.420666   1.396768
     7  C    4.163521   3.765710   2.429345   2.796629   2.418926
     8  C    2.791540   2.469645   1.404920   2.421773   2.787405
     9  C    2.350395   1.517248   2.638332   3.137110   4.525079
    10  C    2.746348   2.499584   3.871328   4.461686   5.853218
    11  C    4.131481   3.780218   5.035392   5.392446   6.774080
    12  C    4.920742   4.252493   5.227857   5.280607   6.585058
    13  C    4.631076   3.688944   4.332585   4.182472   5.405670
[...]
 ,0.00016784,-0.00002037,-0.00016581,-0.00004343,0.00010860,0.00002434,
 0.00038485,0.00001306,-0.01133874,-0.23691796,-0.12643054,0.05942012,-
 0.02690511,-0.03951407,-0.03161570,-0.03704707,-0.02004838,-0.02460402
 ,0.05415016,0.02396126,-0.05945149,-0.12864917,-0.04472236,0.10823933,
 0.39747151,-0.00201601,-0.00140936,0.00277225,-0.00894810,-0.00842416,
 -0.01501579,0.00036302,0.00025136,0.00009999,0.00140496,0.00058696,-0.
 00296337,0.00089403,0.00027648,0.00120981,0.00010535,-0.00022090,-0.00
 028815,-0.00000508,0.00006353,0.00015894,0.00007549,0.00015178,0.00039
 365,-0.00596900,-0.12523243,-0.16227808,0.04432036,-0.03759664,-0.0078
 0107,-0.02375312,-0.01998567,-0.02325236,-0.01498625,0.02316499,0.0403
 0396,-0.03394110,-0.04413775,-0.09714211,0.05758939,0.22240841,0.26358
 151,-0.00030845,-0.00023004,-0.00007969,0.00097215,0.00015325,-0.00048
 332,0.00504773,0.00015191,0.00163311,-0.27166989,-0.04660618,-0.124892
 77,-0.01746990,-0.00570835,-0.01379530,-0.00281378,0.00109070,0.003289
 99,0.00010266,0.00036698,0.00095261,0.00151846,0.00018098,0.00121782,0
 .00009289,0.00101453,0.00130682,0.00014210,-0.00005168,-0.00015645,-0.
 00007556,-0.00006835,-0.00004177,-0.00003498,-0.00005945,-0.00003634,-
 0.00094007,-0.00022521,0.00010020,-0.00526645,-0.00146446,0.00199529,0
 .29007947,0.00008541,0.00001382,-0.00066589,-0.00092016,-0.00306952,0.
 00171594,-0.00950979,0.00024380,-0.00498420,-0.04818064,-0.05269733,-0
 .03770650,0.00671665,0.00562690,0.00383702,0.00141655,0.00609582,-0.00
 334024,0.00014936,-0.00032854,0.00003338,0.00080761,0.00470012,-0.0039
 4941,0.00021893,0.00090204,-0.00020894,0.00018002,-0.00024584,-0.00027
 864,-0.00013394,-0.00015367,-0.00009124,-0.00006681,0.00010618,0.00008
 375,-0.00006867,-0.00008094,0.00028206,-0.00184557,-0.00044187,0.00050
 393,0.05137602,0.04327288,0.00064218,-0.00002647,0.00029231,-0.0018054
 3,0.00188821,0.00069378,-0.02665412,-0.00496196,-0.00989853,-0.1207679
 0,-0.03587861,-0.12556659,0.01398529,0.00272175,0.01115820,0.00284487,
 -0.00315097,0.00017898,0.00069651,-0.00001939,-0.00063090,0.00168528,-
 0.00431258,-0.00430265,0.00093554,-0.00135014,-0.00136497,0.00019165,0
 .00027078,0.00007199,-0.00008032,-0.00005516,-0.00004972,-0.00037847,0
 .00021214,-0.00016606,0.00060157,0.00079860,0.00066071,0.00028114,-0.0
 0082124,0.00057977,0.12950177,0.04278495,0.12814357,-0.00057344,0.0004
 4957,0.00053593,0.00112585,0.00015139,0.00085394,-0.00493451,0.0007939
 4,0.00153391,0.00365762,0.01081730,0.02785284,-0.06022127,0.00186400,0
 .00342218,0.00504929,-0.01073679,-0.02710992,-0.00472308,-0.00056329,-
 0.00184093,-0.00132968,-0.00006312,-0.00006453,-0.00000129,0.00011812,
 0.00002764,-0.00006824,-0.00005398,-0.00003220,0.00001954,0.00002055,0
 .00001232,-0.00000406,-0.00004722,-0.00002685,-0.00007026,0.00003678,0
 .00003816,0.00001879,-0.00001965,-0.00008157,0.00107684,-0.00018759,-0
 .00038107,0.05967463,0.00009866,-0.00038546,0.00000025,-0.00051946,0.0
 0059750,-0.00020426,0.00143620,0.00636092,-0.00230102,-0.00100628,0.00
 024434,-0.00499066,0.00203755,-0.07654752,-0.10377875,0.00094319,0.000
 38048,-0.00463358,-0.00104949,0.00607213,-0.00217314,0.00004011,-0.000
 22448,0.00024330,-0.00003641,-0.00003052,-0.00001192,0.00003781,0.0000
 2219,0.00001533,-0.00000767,-0.00000749,-0.00000417,-0.00000359,0.0000
 1140,-0.00000117,0.00001744,0.00001464,0.00000365,-0.00004506,-0.00002
 723,0.00007914,0.00026313,-0.00335031,0.00175910,-0.00207524,0.0707985
 2,0.00048023,-0.00021042,-0.00052141,-0.00116465,-0.00014136,0.0001075
 5,0.00294346,-0.00220762,0.00167647,-0.00146760,-0.00458246,-0.0094170
 9,0.00327427,-0.10368651,-0.29770299,0.00271206,-0.00506755,-0.0104093
 2,-0.00311048,-0.00212691,0.00134497,-0.00013177,0.00038196,0.00065053
 ,0.00003157,-0.00005352,-0.00002114,0.00008051,0.00005259,0.00004936,-
 0.00002805,-0.00001874,-0.00001193,0.00001370,0.00005144,0.00004872,0.
 00006406,-0.00009305,-0.00006466,0.00009218,0.00009190,-0.00003717,0.0
 0003881,0.00165154,0.00024576,-0.00385203,0.11432483,0.31460546,-0.000
 10529,0.00010921,0.00014677,0.00024162,-0.00010159,-0.00010629,0.00018
 750,-0.00031137,-0.00079990,-0.00304111,-0.00141967,-0.00402531,-0.018
 70715,0.00630941,0.01479762,-0.27327433,0.04745573,0.10755035,0.003392
 28,-0.00063472,-0.00159629,0.00161563,-0.00004164,-0.00029125,0.000003
 19,-0.00004634,-0.00005890,-0.00003541,-0.00000286,-0.00002853,0.00000
 962,0.00000227,0.00000446,-0.00002368,-0.00000191,-0.00002676,0.000031
 69,0.00008730,0.00006488,-0.00017974,-0.00012389,0.00015298,-0.0008423
 0,0.00044290,0.00075057,0.00102483,-0.00018188,-0.00021415,0.28887658,
 0.00019726,0.00013422,-0.00013306,-0.00007551,-0.00122723,0.00041493,-
 0.00033026,-0.00050343,0.00005770,-0.00107168,0.00620215,-0.00300634,-
 0.00546725,0.00463845,0.00280226,0.04745856,-0.05137330,-0.03199374,0.
 01110352,0.00141031,-0.00431088,-0.00034042,0.00533856,-0.00466402,-0.
 00012543,0.00010614,-0.00005291,0.00006483,0.00000215,-0.00002757,-0.0
 0003843,-0.00003846,-0.00000516,-0.00001724,0.00003714,0.00003050,0.00
 006910,-0.00003681,0.00003949,0.00002324,0.00003044,0.00004173,-0.0002
 7620,0.00002774,0.00017608,0.00009757,-0.00319464,0.00161706,-0.051523
 36,0.04158624,0.00024910,-0.00001413,0.00018503,-0.00009505,0.00039804
 ,-0.00027272,-0.00083164,-0.00008875,-0.00079821,-0.00296438,-0.003013
 33,-0.00011355,-0.01461016,0.00333879,0.01110699,0.10756860,-0.0319681
 6,-0.11293016,0.02773696,-0.00493986,-0.00772155,-0.00135838,-0.004550
 17,-0.00408831,0.00007793,-0.00008557,-0.00003684,0.00002737,0.0000297
 7,0.00002723,-0.00000488,0.00000227,-0.00000491,-0.00000388,0.00001545
 ,-0.00000342,0.00001902,0.00002351,-0.00001158,-0.00006625,-0.00006603
 ,0.00004989,-0.00070560,0.00026355,0.00037787,0.00051462,0.00161494,0.
 00024388,-0.11653503,0.03748285,0.11395198,-0.00000324,0.00031031,0.00
 043867,-0.00038112,-0.00092464,-0.00164700,-0.00288496,0.00196419,0.00
 380673,0.00018216,0.00031507,0.00084411,0.00147068,0.00030059,0.000508
 45,0.00450402,0.00084605,0.00222863,-0.26362485,-0.04276710,-0.1162222
 9,-0.01986615,-0.00587960,-0.01544145,-0.00019715,0.00025914,0.0003833
 9,-0.00018019,-0.00012919,-0.00009242,0.00001056,0.00005863,0.00002786
 ,0.00000015,-0.00004216,-0.00003229,-0.00005173,0.00005482,0.00002143,
 -0.00000349,-0.00005108,-0.00000143,-0.00000207,-0.00004998,-0.0001082
 6,0.00013306,0.00007947,0.00018472,0.00080153,-0.00020939,-0.00034570,
 0.27899834,0.00006271,0.00003764,-0.00007303,0.00019027,0.00043409,0.0
 0000479,0.00122980,0.00639349,-0.00294126,0.00036612,-0.00046664,-0.00
 023800,0.00075863,0.00512881,-0.00439701,-0.01106753,0.00047546,-0.004
 82185,-0.04275705,-0.04840034,-0.03320471,0.00591339,0.00371488,0.0037
 1288,0.00018709,-0.00016327,0.00013837,0.00000874,0.00003926,0.0000218
 3,0.00001505,0.00000320,-0.00001892,-0.00000138,-0.00001183,-0.0000117
 1,-0.00002398,0.00003865,-0.00001097,-0.00003863,-0.00008594,-0.000002
 98,0.00002373,-0.00110279,0.00047521,-0.00057513,0.00025666,-0.0003935
 0,0.00007994,-0.00304136,0.00167532,0.04594813,0.04019349,-0.00023300,
 -0.00002221,0.00001209,0.00078597,0.00016639,0.00067178,0.00250086,-0.
 00312447,0.00024331,0.00081880,-0.00018657,-0.00066444,0.00182323,-0.0
 0433662,-0.00380132,-0.02731946,-0.00434171,-0.00981159,-0.11604114,-0
 .03315835,-0.12308200,0.01376997,0.00323575,0.01083605,0.00008717,-0.0
 0004337,-0.00027462,0.00005179,0.00003632,0.00001679,0.00000494,-0.000
 02810,0.00000129,-0.00000362,0.00001237,0.00000498,0.00002656,-0.00001
 356,0.00001743,-0.00004451,0.00002286,0.00004297,-0.00008992,0.0005251
 1,-0.00006784,-0.00142980,-0.00034515,-0.00057006,0.00038924,0.0016457
 2,0.00045196,0.12525619,0.03819989,0.12589132,-0.00078581,0.00100823,0
 .00226436,0.00035713,-0.00189948,-0.00295234,0.00590186,-0.01037679,-0
 .02504464,-0.00534712,-0.00068455,-0.00187739,-0.00110424,-0.00002112,
 -0.00009115,-0.00469553,0.00098049,0.00159799,0.00368687,0.01111688,0.
 02636974,-0.05923969,0.00271256,0.00870674,0.00021139,0.00023073,0.000
 14140,0.00019949,0.00005644,0.00005597,-0.00011521,-0.00003583,-0.0000
 3170,-0.00003497,0.00014581,0.00008464,0.00024621,0.00003866,-0.000003
 84,0.00008124,0.00000042,0.00013247,0.00024970,-0.00044453,-0.00159098
 ,0.00014930,-0.00001964,0.00003697,0.00004757,0.00046980,0.00133323,0.
 00111954,-0.00031994,-0.00036440,0.05912470,0.00192867,-0.00002272,0.0
 0038192,0.00028705,-0.00411770,-0.00008245,-0.00176572,0.00172884,-0.0
 0551871,-0.00079113,0.00480491,-0.00191323,0.00009001,-0.00024929,0.00
 044033,0.00102606,0.00660623,-0.00240983,-0.00058467,0.00191986,-0.004
 54112,0.00308629,-0.08471311,-0.10892136,-0.00008640,0.00016746,-0.000
 11231,-0.00008504,-0.00001071,-0.00008732,0.00002365,0.00001202,0.0000
 6560,0.00001567,-0.00003735,-0.00003896,-0.00007435,-0.00001091,0.0000
 1395,-0.00002054,-0.00006188,-0.00000557,0.00010365,0.00053577,-0.0003
 6690,0.00000592,-0.00100010,0.00036884,-0.00007900,-0.00010667,-0.0001
 2353,-0.00005340,-0.00343787,0.00174936,-0.00302653,0.07798399,0.00291
 704,0.00085444,0.00130478,0.00123563,-0.00021162,-0.00265921,0.0001478
 7,-0.00631921,-0.01102559,-0.00294991,-0.00193676,0.00116797,0.0001010
 8,0.00039117,0.00048736,0.00216973,-0.00266722,0.00179316,-0.00150610,
 -0.00459672,-0.00680896,0.00653715,-0.10827052,-0.29922264,-0.00014713
 ,-0.00009874,0.00010988,0.00004408,-0.00003245,0.00000484,-0.00002708,
 0.00001974,-0.00001711,-0.00001975,0.00003081,0.00001836,0.00007815,0.
 00003854,-0.00000189,-0.00007348,-0.00004540,0.00006191,0.00026016,-0.
 00046613,-0.00046401,0.00003191,0.00040431,-0.00022416,-0.00017708,-0.
 00010543,-0.00042794,0.00020123,0.00188364,0.00008595,-0.00880526,0.12
 111949,0.31578587,-0.00177327,-0.00187924,-0.00145094,0.00026341,0.001
 93664,0.00205368,0.00045927,-0.00018659,-0.00061290,0.00024178,0.00006
 191,0.00027650,0.00004017,-0.00001703,-0.00006901,0.00003625,-0.000001
 97,-0.00003756,-0.00003031,-0.00002537,-0.00009165,-0.00004474,-0.0001
 0573,-0.00010267,0.01183210,0.01846293,0.01379024,-0.06400320,-0.03200
 492,-0.02233856,0.00113921,-0.02312701,-0.01791558,-0.00495379,-0.0013
 1854,-0.00073896,-0.00206274,-0.00045638,-0.00026801,-0.00479714,0.004
 30374,0.00364758,0.00004996,0.00005486,-0.00012850,0.00003327,-0.00001
 564,-0.00003884,0.00000919,-0.00001063,-0.00001647,0.00003088,-0.00000
 211,0.00000334,-0.00011618,0.00002389,-0.00001226,0.06208006,-0.002249
 25,0.00077462,0.00124722,-0.00054683,-0.00221899,-0.00027078,0.0000527
 9,0.00016295,0.00004760,-0.00003680,0.00003743,-0.00003232,-0.00005855
 ,0.00002589,0.00002436,0.00000831,0.00001657,0.00003641,0.00003032,-0.
 00002941,0.00001813,-0.00006203,0.00008061,-0.00000010,-0.00374607,-0.
 00835071,-0.00817499,-0.03008824,-0.23136808,-0.14703195,0.00017211,-0
 .00242941,-0.00481093,-0.00165998,0.00399683,-0.00347726,0.00055505,0.
 00049973,0.00069764,0.00263369,0.00201302,-0.00439734,-0.00007472,-0.0
 0008124,0.00006030,-0.00000899,0.00000498,0.00000903,-0.00000011,-0.00
 000069,0.00000658,-0.00000478,-0.00000292,-0.00000012,0.00003903,0.000
 01847,0.00000978,0.03497193,0.23878851,-0.00247352,0.00094787,0.000380
 22,-0.00033586,-0.00012896,-0.00329320,-0.00002246,0.00001619,0.000053
 16,0.00000410,-0.00002388,-0.00005019,0.00003423,-0.00002014,0.0000074
 8,-0.00001952,-0.00001922,-0.00002807,-0.00000237,0.00005471,0.0000500
 9,0.00004586,-0.00006950,-0.00000706,-0.00109466,-0.00894495,-0.004561
 75,-0.02244626,-0.14759065,-0.15287700,0.00027032,-0.00347550,0.000816
 88,-0.00066713,-0.00328531,0.00575282,0.00039449,0.00067377,0.00009089
 ,0.00185998,-0.00405476,0.00410686,0.00001309,0.00002648,0.00003174,0.
 00000347,-0.00000121,-0.00000309,0.00000432,0.00000411,0.00000039,0.00
 000460,-0.00000255,-0.00000202,0.00000300,-0.00000609,0.00002798,0.024
 58250,0.16291860,0.15293439,0.00002321,-0.00030259,-0.00035752,-0.0002
 1013,0.00142536,0.00141605,-0.00038467,-0.00025938,-0.00030308,-0.0000
 0917,-0.00004056,-0.00006699,-0.00002293,0.00001263,-0.00000448,-0.000
 00991,-0.00000128,0.00000291,-0.00003606,0.00000735,-0.00001796,-0.000
 06605,0.00006652,0.00018335,-0.00377060,-0.00358167,-0.00257441,-0.018
 96387,0.01469687,0.01184107,-0.24600264,0.10262939,0.08373738,0.006846
 25,-0.00250639,-0.00195785,0.00152651,-0.00118216,-0.00064188,0.000085
 38,-0.00042085,-0.00044555,0.00001348,-0.00000244,-0.00000436,-0.00001
 049,0.00000804,0.00001549,-0.00001102,0.00000046,0.00000687,-0.0000318
 7,0.00000382,0.00000489,0.00002450,-0.00001192,-0.00000541,0.00126398,
 -0.00006878,-0.00018413,0.25879434,0.00025740,0.00011067,-0.00003410,-
 0.00067378,0.00028457,0.00057150,-0.00007516,-0.00018032,-0.00013082,0
 .00001091,0.00001194,0.00005672,-0.00000643,0.00000873,-0.00000910,-0.
 00000128,0.00000234,0.00000644,-0.00000790,0.00000328,-0.00002328,-0.0
 0004397,0.00000735,0.00003980,-0.00245420,0.00286362,-0.00450398,-0.00
 997019,0.00984932,0.00423673,0.10248747,-0.11115760,-0.05630622,0.0224
 0776,-0.00635946,-0.00882708,-0.00225573,-0.00057858,-0.00697030,-0.00
 037674,-0.00157841,0.00184089,-0.00002241,-0.00001302,-0.00000606,-0.0
 0000189,-0.00000089,0.00000163,0.00000036,-0.00000253,-0.00000040,-0.0
 0000315,0.00000124,0.00000272,-0.00000716,0.00000064,-0.00000152,0.000
 43214,-0.00110127,0.00232682,-0.11065791,0.10901446,-0.00003273,-0.000
 20307,-0.00002426,-0.00019993,0.00045164,0.00011184,-0.00011280,0.0000
 5137,-0.00002497,-0.00002195,-0.00001992,-0.00011156,0.00002748,0.0000
 1048,0.00002748,0.00000292,-0.00000561,-0.00000759,-0.00000367,-0.0000
 0345,-0.00000367,-0.00001876,0.00000062,0.00002563,-0.00182997,-0.0043
 7893,0.00554470,-0.00664373,0.00333251,0.00735562,0.08362921,-0.056361
 69,-0.08556162,0.01676849,-0.00790168,-0.00208603,-0.00134765,-0.00709
 620,0.00358149,-0.00044070,0.00189031,-0.00267154,0.00000424,-0.000004
 68,0.00004176,-0.00000305,-0.00000100,-0.00000082,0.00000467,0.0000001
 2,0.00000098,-0.00000128,0.00000193,0.00000116,0.00000322,-0.00000372,
 -0.00000105,0.00026392,0.00248272,-0.00233691,-0.09060411,0.06551082,0
 .07868701,-0.00012054,-0.00009898,-0.00010981,0.00014118,-0.00000923,-
 0.00005935,-0.00003464,0.00000583,0.00000398,-0.00000926,-0.00001900,0
 .00012404,-0.00003614,-0.00003931,-0.00006156,-0.00002081,0.00001160,0
 .00000014,-0.00002027,0.00000666,0.00001533,0.00002604,0.00001741,0.00
 003307,0.00077170,0.00151266,0.00112122,0.00174568,0.00001371,0.000239
 57,0.00284185,0.00087238,0.00065014,-0.28695358,-0.09381044,-0.0619753
 9,-0.01672858,-0.01361982,-0.00960279,-0.00431279,0.00254605,0.0023947
 0,0.00001378,0.00002093,-0.00013764,-0.00000441,0.00000212,0.00001384,
 -0.00001724,0.00000212,-0.00000030,-0.00001295,-0.00000242,-0.00000163
 ,0.00000590,-0.00000384,-0.00000443,0.00006709,0.00019663,0.00015349,0
 .00073658,-0.00024254,-0.00033318,0.30126864,-0.00012878,0.00034574,0.
 00004616,0.00009127,-0.00077760,0.00093232,-0.00019951,0.00005010,-0.0
 0009072,-0.00000861,-0.00005842,-0.00009310,0.00003916,-0.00002414,0.0
 0002595,-0.00001650,-0.00001617,-0.00003093,-0.00002574,0.00000137,0.0
 0004077,0.00003857,0.00005195,0.00003301,0.00067731,-0.00124443,-0.000
 74647,0.00069413,-0.00079793,-0.00669271,-0.02411708,-0.00455849,-0.00
 468938,-0.09393761,-0.09117118,-0.03759232,0.01266798,0.00881626,0.005
 58836,0.00317048,0.00239487,-0.00434925,0.00001947,0.00004191,0.000037
 68,-0.00000246,0.00000350,0.00000330,0.00000082,0.00001031,-0.00000110
 ,-0.00000627,-0.00000265,0.00000275,0.00001097,0.00000033,0.00000061,-
 0.00115888,-0.00011122,-0.00011918,0.00039582,-0.00061363,0.00243118,0
 .10225271,0.08837871,-0.00022645,-0.00020585,0.00019051,0.00007119,0.0
 0102009,-0.00136846,0.00012789,-0.00008168,0.00010901,0.00000759,0.000
 03846,-0.00000948,-0.00006050,0.00006102,-0.00000630,0.00002860,0.0000
 1438,0.00005184,0.00004356,0.00000453,-0.00004800,-0.00007464,-0.00004
 394,0.00000296,0.00027782,-0.00060044,-0.00083589,0.00060798,-0.006745
 48,0.00297833,-0.01805644,-0.00545253,-0.00069321,-0.06201190,-0.03760
 615,-0.06255612,0.01015462,0.00643988,0.00528569,0.00288763,-0.0042415
 5,0.00468529,-0.00001722,-0.00006386,0.00002895,-0.00000072,0.00000097
 ,-0.00000063,-0.00000048,-0.00001276,0.00000723,-0.00000065,0.00000467
 ,-0.00000379,0.00001078,-0.00000365,0.00000522,-0.00081481,-0.00018975
 ,0.00006328,0.00013939,0.00244552,-0.00205993,0.06736599,0.04360579,0.
 05586625,-0.00062872,-0.00030383,-0.00046664,0.00117439,-0.00060077,-0
 .00035554,-0.00012272,0.00000819,-0.00003968,-0.00010308,-0.00002853,-
 0.00003994,-0.00000181,0.00001063,-0.00001368,-0.00003695,-0.00000017,
 -0.00000688,-0.00001878,0.00001876,0.00003246,0.00001811,0.00003463,0.
 00007316,-0.00382614,-0.00256764,-0.00118234,-0.00077639,-0.00041555,-
 0.00028465,-0.00486786,0.00151234,0.00154267,0.00580298,0.02177889,0.0
 1624004,-0.05666443,0.00110049,0.00135293,-0.00818717,-0.03101821,-0.0
 2292842,0.00006425,-0.00005913,-0.00007932,-0.00002231,-0.00000336,0.0
 0002571,-0.00000395,-0.00000067,0.00000400,-0.00001113,0.00000076,0.00
 000453,0.00003334,-0.00000831,0.00000387,0.00023472,-0.00005473,-0.000
 12752,0.00021517,0.00120439,0.00088939,0.00065275,-0.00045724,-0.00045
 925,0.06707571,-0.00044824,-0.00036585,-0.00011397,0.00081814,0.000230
 54,-0.00040213,-0.00012795,0.00000339,0.00000550,-0.00012289,-0.000081
 90,0.00017509,-0.00005168,-0.00003244,-0.00009761,-0.00004367,0.000015
 56,0.00000864,-0.00002334,0.00001448,0.00003013,0.00003103,0.00003749,
 0.00006223,-0.00117342,0.00532910,-0.00394954,0.00020353,0.00025513,0.
 00036886,0.00257056,0.00255494,-0.00344984,-0.00243592,-0.00564544,-0.
 00852864,0.00040298,-0.22864668,-0.13979519,-0.00969782,-0.01023422,-0
 .00360715,0.00004271,-0.00000189,-0.00023533,-0.00001976,0.00000137,0.
 00002750,-0.00001961,0.00000126,-0.00000004,-0.00001568,-0.00000126,0.
 00000099,0.00002555,-0.00001022,-0.00000081,0.00006199,-0.00072568,0.0
 0077334,-0.00021034,-0.00057246,-0.00018375,0.00038477,-0.00071922,0.0
 0161230,0.00984906,0.23859402,-0.00016639,0.00007441,-0.00033314,0.000
 71572,-0.00031314,0.00052290,-0.00012693,0.00000069,-0.00002139,0.0000
 1907,-0.00008089,-0.00008249,0.00000525,0.00001507,0.00000751,-0.00001
 075,-0.00000216,-0.00001598,-0.00001926,0.00001538,0.00002631,0.000029
 36,0.00002650,0.00005739,-0.00056838,-0.00436739,0.00774161,0.00020824
 ,0.00029480,-0.00007864,0.00232410,-0.00351969,0.00441565,-0.00182666,
 -0.00944905,-0.00104005,0.00108214,-0.13962870,-0.14484598,-0.00747279
 ,-0.00266770,-0.00659715,-0.00001553,0.00005198,0.00000589,-0.00000423
 ,0.00000020,0.00001176,-0.00000588,-0.00000069,0.00000576,-0.00001323,
 -0.00000205,0.00000062,0.00002117,-0.00000474,-0.00000074,0.00001896,0
 .00082717,-0.00115688,-0.00017967,-0.00022674,-0.00048773,0.00017057,0
 .00165730,-0.00169277,0.00581511,0.15729942,0.14355754\\-0.00000003,0.
 00000058,-0.00000052,-0.00000065,0.00000026,-0.00000027,0.00000046,0.0
 0000014,0.00000014,-0.00000002,-0.00000030,0.00000014,0.00000037,-0.00
 000038,0.00000035,-0.00000009,-0.00000030,0.00000014,-0.00000009,0.000
 00025,0.00000023,-0.00000035,0.00000044,-0.00000003,0.00000042,-0.0000
 0013,-0.00000066,-0.00000048,0.00000028,-0.00000034,0.00000014,0.00000
 042,-0.00000021,0.00000012,-0.00000062,-0.00000030,0.00000005,-0.00000
 011,0.00000012,0.00000006,0.,0.00000049,0.00000012,-0.00000052,0.00000
 020,0.00000017,-0.00000077,0.00000047,0.00000016,-0.00000025,0.0000005
 5,-0.00000007,0.00000042,0.00000017,-0.00000011,0.00000069,-0.00000007
 ,-0.00000017,0.00000049,-0.00000065,-0.00000020,0.00000016,-0.00000061
 ,0.00000001,-0.00000021,0.00000011,0.00000017,-0.00000053,0.00000058\\
 \@


 TOM, TOM, THE BURGLAR'S SON
 STOLE A MACHINE AND AWAY HE RUN
 THE JOB WAS NEAT, BUT TOM GOT BEAT
 BY THE TIME HE GOT HOME IT WAS OBSOLETE.
 Job cpu time:       0 days  0 hours  0 minutes 53.2 seconds.
 Elapsed time:       0 days  0 hours  1 minutes  4.8 seconds.
 File lengths (MBytes):  RWF=    144 Int=      0 D2E=      0 Chk=      7 Scr=      1
 Normal termination of Gaussian 16 at Sat Nov 16 06:41:16 2024.
