 Entering Gaussian System, Link 0=g16
 Input=/Volumes/SSD-PSM960U3-UW/CoMFA_calc/GCSHUYKULREZSJ-UHFFFAOYSA-N/opt1.gjf
 Output=/Volumes/SSD-PSM960U3-UW/CoMFA_calc/GCSHUYKULREZSJ-UHFFFAOYSA-N/opt1.log
 Initial command:
 /Applications/g16/l1.exe "/Users/mac_poclab/PycharmProjects/CoMFA_model/Gau-17015.inp" -scrdir="/Users/mac_poclab/PycharmProjects/CoMFA_model/"
 Entering Link 1 = /Applications/g16/l1.exe PID=     17016.
  
 Copyright (c) 1988,1990,1992,1993,1995,1998,2003,2009,2016,
            Gaussian, Inc.  All Rights Reserved.
  
 This is part of the Gaussian(R) 16 program.  It is based on
 the Gaussian(R) 09 system (copyright 2009, Gaussian, Inc.),
 the Gaussian(R) 03 system (copyright 2003, Gaussian, Inc.),
 the Gaussian(R) 98 system (copyright 1998, Gaussian, Inc.),
 the Gaussian(R) 94 system (copyright 1995, Gaussian, Inc.),
 the Gaussian 92(TM) system (copyright 1992, Gaussian, Inc.),
 the Gaussian 90(TM) system (copyright 1990, Gaussian, Inc.),
 the Gaussian 88(TM) system (copyright 1988, Gaussian, Inc.),
 the Gaussian 86(TM) system (copyright 1986, Carnegie Mellon
 University), and the Gaussian 82(TM) system (copyright 1983,
 Carnegie Mellon University). Gaussian is a federally registered
 trademark of Gaussian, Inc.
  
 This software contains proprietary and confidential information,
 including trade secrets, belonging to Gaussian, Inc.
  
 This software is provided under written license and may be
 used, copied, transmitted, or stored only in accord with that
 written license.
  
 The following legend is applicable only to US Government
 contracts under FAR:
  
                    RESTRICTED RIGHTS LEGEND
  
 Use, reproduction and disclosure by the US Government is
 subject to restrictions as set forth in subparagraphs (a)
 and (c) of the Commercial Computer Software - Restricted
 Rights clause in FAR 52.227-19.
  
 Gaussian, Inc.
 340 Quinnipiac St., Bldg. 40, Wallingford CT 06492
  
  
 ---------------------------------------------------------------
 Warning -- This program may not be used in any manner that
 competes with the business of Gaussian, Inc. or will provide
 assistance to any competitor of Gaussian, Inc.  The licensee
 of this program is prohibited from giving any competitor of
 Gaussian, Inc. access to this program.  By using this program,
 the user acknowledges that Gaussian, Inc. is engaged in the
 business of creating and licensing software in the field of
 computational chemistry and represents and warrants to the
 licensee that it is not a competitor of Gaussian, Inc. and that
 it will not use this program in any manner prohibited above.
 ---------------------------------------------------------------
  

 Cite this work as:
 Gaussian 16, Revision A.03,
 M. J. Frisch, G. W. Trucks, H. B. Schlegel, G. E. Scuseria, 
 M. A. Robb, J. R. Cheeseman, G. Scalmani, V. Barone, 
 G. A. Petersson, H. Nakatsuji, X. Li, M. Caricato, A. V. Marenich, 
 J. Bloino, B. G. Janesko, R. Gomperts, B. Mennucci, H. P. Hratchian, 
 J. V. Ortiz, A. F. Izmaylov, J. L. Sonnenberg, D. Williams-Young, 
 F. Ding, F. Lipparini, F. Egidi, J. Goings, B. Peng, A. Petrone, 
 T. Henderson, D. Ranasinghe, V. G. Zakrzewski, J. Gao, N. Rega, 
 G. Zheng, W. Liang, M. Hada, M. Ehara, K. Toyota, R. Fukuda, 
 J. Hasegawa, M. Ishida, T. Nakajima, Y. Honda, O. Kitao, H. Nakai, 
 T. Vreven, K. Throssell, J. A. Montgomery, Jr., J. E. Peralta, 
 F. Ogliaro, M. J. Bearpark, J. J. Heyd, E. N. Brothers, K. N. Kudin, 
 V. N. Staroverov, T. A. Keith, R. Kobayashi, J. Normand, 
 K. Raghavachari, A. P. Rendell, J. C. Burant, S. S. Iyengar, 
 J. Tomasi, M. Cossi, J. M. Millam, M. Klene, C. Adamo, R. Cammi, 
 J. W. Ochterski, R. L. Martin, K. Morokuma, O. Farkas, 
 J. B. Foresman, and D. J. Fox, Gaussian, Inc., Wallingford CT, 2016.
 
 ******************************************
 Gaussian 16:  EM64M-G16RevA.03 25-Dec-2016
                16-Nov-2024 
 ******************************************
 %nprocshared=30
 Will use up to   30 processors via shared memory.
 %mem=30GB
 %chk= 1.chk
 -------------------------------
 # freq opt=tight b3lyp 6-31g(d)
 -------------------------------
 1/7=10,18=20,19=15,26=3,38=1/1,3;
 2/9=110,12=2,17=6,18=5,40=1/2;
 3/5=1,6=6,7=1,11=2,25=1,30=1,71=1,74=-5/1,2,3;
 4//1;
 5/5=2,38=5/2;
 6/7=2,8=2,9=2,10=2,28=1/1;
 7//1,2,3,16;
 1/7=10,18=20,19=15,26=3/3(2);
 2/9=110/2;
 99//99;
 2/9=110/2;
 3/5=1,6=6,7=1,11=2,25=1,30=1,71=1,74=-5/1,2,3;
 4/5=5,16=3,69=1/1;
 5/5=2,38=5/2;
 7//1,2,3,16;
 1/7=10,18=20,19=15,26=3/3(-5);
 2/9=110/2;
 6/7=2,8=2,9=2,10=2,19=2,28=1/1;
 99/9=1/99;
 ---------
 good luck
 ---------
 Symbolic Z-matrix:
 Charge =  0 Multiplicity = 1
 O                     0.27306  -2.33215   0.55044 
 C                     0.17056  -1.15855   0.18981 
 C                    -1.1876   -0.55578   0.12098 
 C                    -1.54169   0.39788  -0.84025 
 C                    -2.84221   0.90818  -0.87665 
 C                    -3.79668   0.45999   0.0359 
 C                    -3.45688  -0.5042    0.98325 
 C                    -2.15829  -1.01544   1.02241 
 C                     1.40171  -0.38807  -0.15015 
 C                     2.5987   -1.0755   -0.33097 
 C                     3.74914  -0.34638  -0.61881 
 C                     3.67138   1.03853  -0.70865 
 C                     2.44087   1.6418   -0.50567 
 N                     1.30588   0.96328  -0.22911 
 H                    -0.82218   0.74911  -1.57455 
 H                    -3.11073   1.65327  -1.62136 
 H                    -4.80796   0.85771   0.00422 
 H                    -4.20194  -0.86205   1.68913 
 H                    -1.90332  -1.77494   1.75891 
 H                     2.63667  -2.15731  -0.24552 
 H                     4.69753  -0.85604  -0.76526 
 H                     4.55071   1.63483  -0.92709 
 H                     2.33326   2.72184  -0.56032 
 

 GradGradGradGradGradGradGradGradGradGradGradGradGradGradGradGradGradGrad
 Berny optimization.
 Initialization pass.
                           ----------------------------
                           !    Initial Parameters    !
                           ! (Angstroms and Degrees)  !
 --------------------------                            --------------------------
 ! Name  Definition              Value          Derivative Info.                !
 --------------------------------------------------------------------------------
 ! R1    R(1,2)                  1.232          estimate D2E/DX2                !
 ! R2    R(2,3)                  1.4875         estimate D2E/DX2                !
 ! R3    R(2,9)                  1.4916         estimate D2E/DX2                !
 ! R4    R(3,4)                  1.3996         estimate D2E/DX2                !
 ! R5    R(3,8)                  1.4022         estimate D2E/DX2                !
 ! R6    R(4,5)                  1.3975         estimate D2E/DX2                !
 ! R7    R(4,15)                 1.0864         estimate D2E/DX2                !
 ! R8    R(5,6)                  1.3945         estimate D2E/DX2                !
 ! R9    R(5,16)                 1.0871         estimate D2E/DX2                !
 ! R10   R(6,7)                  1.3938         estimate D2E/DX2                !
 ! R11   R(6,17)                 1.0871         estimate D2E/DX2                !
 ! R12   R(7,8)                  1.3962         estimate D2E/DX2                !
 ! R13   R(7,18)                 1.0869         estimate D2E/DX2                !
 ! R14   R(8,19)                 1.0882         estimate D2E/DX2                !
 ! R15   R(9,10)                 1.3921         estimate D2E/DX2                !
 ! R16   R(9,14)                 1.357          estimate D2E/DX2                !
 ! R17   R(10,11)                1.3921         estimate D2E/DX2                !
 ! R18   R(10,20)                1.0858         estimate D2E/DX2                !
 ! R19   R(11,12)                1.39           estimate D2E/DX2                !
 ! R20   R(11,21)                1.0866         estimate D2E/DX2                !
 ! R21   R(12,13)                1.3854         estimate D2E/DX2                !
 ! R22   R(12,22)                1.0847         estimate D2E/DX2                !
 ! R23   R(13,14)                1.3509         estimate D2E/DX2                !
 ! R24   R(13,23)                1.0868         estimate D2E/DX2                !
 ! A1    A(1,2,3)              118.3922         estimate D2E/DX2                !
 ! A2    A(1,2,9)              119.3463         estimate D2E/DX2                !
 ! A3    A(3,2,9)              122.2594         estimate D2E/DX2                !
 ! A4    A(2,3,4)              122.6082         estimate D2E/DX2                !
 ! A5    A(2,3,8)              118.0013         estimate D2E/DX2                !
 ! A6    A(4,3,8)              119.3249         estimate D2E/DX2                !
 ! A7    A(3,4,5)              120.1411         estimate D2E/DX2                !
 ! A8    A(3,4,15)             121.1276         estimate D2E/DX2                !
 ! A9    A(5,4,15)             118.7289         estimate D2E/DX2                !
 ! A10   A(4,5,6)              120.1683         estimate D2E/DX2                !
 ! A11   A(4,5,16)             119.8649         estimate D2E/DX2                !
 ! A12   A(6,5,16)             119.9663         estimate D2E/DX2                !
 ! A13   A(5,6,7)              120.0168         estimate D2E/DX2                !
 ! A14   A(5,6,17)             120.003          estimate D2E/DX2                !
 ! A15   A(7,6,17)             119.9789         estimate D2E/DX2                !
 ! A16   A(6,7,8)              119.9439         estimate D2E/DX2                !
 ! A17   A(6,7,18)             120.1354         estimate D2E/DX2                !
 ! A18   A(8,7,18)             119.9202         estimate D2E/DX2                !
 ! A19   A(3,8,7)              120.386          estimate D2E/DX2                !
 ! A20   A(3,8,19)             120.1111         estimate D2E/DX2                !
 ! A21   A(7,8,19)             119.5028         estimate D2E/DX2                !
 ! A22   A(2,9,10)             118.961          estimate D2E/DX2                !
 ! A23   A(2,9,14)             117.9917         estimate D2E/DX2                !
 ! A24   A(10,9,14)            123.017          estimate D2E/DX2                !
 ! A25   A(9,10,11)            118.606          estimate D2E/DX2                !
 ! A26   A(9,10,20)            120.7847         estimate D2E/DX2                !
 ! A27   A(11,10,20)           120.6088         estimate D2E/DX2                !
 ! A28   A(10,11,12)           119.2727         estimate D2E/DX2                !
 ! A29   A(10,11,21)           120.2323         estimate D2E/DX2                !
 ! A30   A(12,11,21)           120.494          estimate D2E/DX2                !
 ! A31   A(11,12,13)           118.299          estimate D2E/DX2                !
 ! A32   A(11,12,22)           121.0245         estimate D2E/DX2                !
 ! A33   A(13,12,22)           120.6758         estimate D2E/DX2                !
 ! A34   A(12,13,14)           123.8839         estimate D2E/DX2                !
 ! A35   A(12,13,23)           120.8862         estimate D2E/DX2                !
 ! A36   A(14,13,23)           115.2298         estimate D2E/DX2                !
 ! A37   A(9,14,13)            116.9186         estimate D2E/DX2                !
 ! D1    D(1,2,3,4)           -146.0773         estimate D2E/DX2                !
 ! D2    D(1,2,3,8)             30.955          estimate D2E/DX2                !
 ! D3    D(9,2,3,4)             34.4647         estimate D2E/DX2                !
 ! D4    D(9,2,3,8)           -148.5029         estimate D2E/DX2                !
 ! D5    D(1,2,9,10)            13.6277         estimate D2E/DX2                !
 ! D6    D(1,2,9,14)          -164.4324         estimate D2E/DX2                !
 ! D7    D(3,2,9,10)          -166.9193         estimate D2E/DX2                !
 ! D8    D(3,2,9,14)            15.0206         estimate D2E/DX2                !
 ! D9    D(2,3,4,5)            178.5469         estimate D2E/DX2                !
 ! D10   D(2,3,4,15)            -0.8878         estimate D2E/DX2                !
 ! D11   D(8,3,4,5)              1.5523         estimate D2E/DX2                !
 ! D12   D(8,3,4,15)          -177.8824         estimate D2E/DX2                !
 ! D13   D(2,3,8,7)           -178.6614         estimate D2E/DX2                !
 ! D14   D(2,3,8,19)             1.3409         estimate D2E/DX2                !
 ! D15   D(4,3,8,7)             -1.5286         estimate D2E/DX2                !
 ! D16   D(4,3,8,19)           178.4737         estimate D2E/DX2                !
 ! D17   D(3,4,5,6)             -0.637          estimate D2E/DX2                !
 ! D18   D(3,4,5,16)           179.6273         estimate D2E/DX2                !
 ! D19   D(15,4,5,6)           178.8112         estimate D2E/DX2                !
 ! D20   D(15,4,5,16)           -0.9246         estimate D2E/DX2                !
 ! D21   D(4,5,6,7)             -0.3231         estimate D2E/DX2                !
 ! D22   D(4,5,6,17)          -179.9095         estimate D2E/DX2                !
 ! D23   D(16,5,6,7)           179.4124         estimate D2E/DX2                !
 ! D24   D(16,5,6,17)           -0.1741         estimate D2E/DX2                !
 ! D25   D(5,6,7,8)              0.3498         estimate D2E/DX2                !
 ! D26   D(5,6,7,18)          -179.3979         estimate D2E/DX2                !
 ! D27   D(17,6,7,8)           179.9364         estimate D2E/DX2                !
 ! D28   D(17,6,7,18)            0.1886         estimate D2E/DX2                !
 ! D29   D(6,7,8,3)              0.5826         estimate D2E/DX2                !
 ! D30   D(6,7,8,19)          -179.4196         estimate D2E/DX2                !
 ! D31   D(18,7,8,3)          -179.6691         estimate D2E/DX2                !
 ! D32   D(18,7,8,19)            0.3286         estimate D2E/DX2                !
 ! D33   D(2,9,10,11)         -178.5952         estimate D2E/DX2                !
 ! D34   D(2,9,10,20)            1.1537         estimate D2E/DX2                !
 ! D35   D(14,9,10,11)          -0.6381         estimate D2E/DX2                !
 ! D36   D(14,9,10,20)         179.1108         estimate D2E/DX2                !
 ! D37   D(2,9,14,13)          178.4058         estimate D2E/DX2                !
 ! D38   D(10,9,14,13)           0.4301         estimate D2E/DX2                !
 ! D39   D(9,10,11,12)           0.3889         estimate D2E/DX2                !
 ! D40   D(9,10,11,21)        -179.9812         estimate D2E/DX2                !
 ! D41   D(20,10,11,12)       -179.3604         estimate D2E/DX2                !
 ! D42   D(20,10,11,21)          0.2695         estimate D2E/DX2                !
 ! D43   D(10,11,12,13)          0.0227         estimate D2E/DX2                !
 ! D44   D(10,11,12,22)        179.726          estimate D2E/DX2                !
 ! D45   D(21,11,12,13)       -179.6062         estimate D2E/DX2                !
 ! D46   D(21,11,12,22)          0.0971         estimate D2E/DX2                !
 ! D47   D(11,12,13,14)         -0.2394         estimate D2E/DX2                !
 ! D48   D(11,12,13,23)        179.6456         estimate D2E/DX2                !
 ! D49   D(22,12,13,14)       -179.9438         estimate D2E/DX2                !
 ! D50   D(22,12,13,23)         -0.0587         estimate D2E/DX2                !
 ! D51   D(12,13,14,9)           0.0185         estimate D2E/DX2                !
 ! D52   D(23,13,14,9)        -179.8724         estimate D2E/DX2                !
 --------------------------------------------------------------------------------
 Trust Radius=3.00D-01 FncErr=1.00D-07 GrdErr=1.00D-06 EigMax=2.50D+02 EigMin=1.00D-04
 Number of steps in this run=    123 maximum allowed number of steps=    138.
 GradGradGradGradGradGradGradGradGradGradGradGradGradGradGradGradGradGrad

                          Input orientation:                          
 ---------------------------------------------------------------------
 Center     Atomic      Atomic             Coordinates (Angstroms)
 Number     Number       Type             X           Y           Z
 ---------------------------------------------------------------------
      1          8           0        0.273057   -2.332150    0.550444
      2          6           0        0.170561   -1.158545    0.189809
      3          6           0       -1.187600   -0.555782    0.120978
      4          6           0       -1.541688    0.397876   -0.840252
      5          6           0       -2.842208    0.908183   -0.876649
      6          6           0       -3.796684    0.459990    0.035901
      7          6           0       -3.456876   -0.504200    0.983247
      8          6           0       -2.158285   -1.015436    1.022414
      9          6           0        1.401710   -0.388070   -0.150153
     10          6           0        2.598697   -1.075503   -0.330966
     11          6           0        3.749138   -0.346384   -0.618814
     12          6           0        3.671381    1.038532   -0.708649
     13          6           0        2.440867    1.641797   -0.505670
     14          7           0        1.305879    0.963284   -0.229108
     15          1           0       -0.822176    0.749105   -1.574546
     16          1           0       -3.110727    1.653267   -1.621355
     17          1           0       -4.807956    0.857706    0.004224
     18          1           0       -4.201942   -0.862052    1.689134
     19          1           0       -1.903316   -1.774941    1.758910
     20          1           0        2.636671   -2.157311   -0.245524
     21          1           0        4.697525   -0.856039   -0.765263
     22          1           0        4.550712    1.634831   -0.927088
     23          1           0        2.333260    2.721843   -0.560324
 ---------------------------------------------------------------------
                    Distance matrix (angstroms):
                    1          2          3          4          5
     1  O    0.000000
     2  C    1.232036   0.000000
     3  C    2.339539   1.487502   0.000000
     4  C    3.560952   2.532838   1.399573   0.000000
     5  C    4.716061   3.805979   2.424083   1.397530   0.000000
     6  C    4.962216   4.287467   2.801134   2.420023   1.394507
     7  C    4.176257   3.770413   2.428123   2.794071   2.414924
     8  C    2.804980   2.477344   1.402176   2.418092   2.788279
     9  C    2.354600   1.491621   2.608863   3.123706   4.496544
    10  C    2.786512   2.484743   3.848429   4.424139   5.816892
    11  C    4.170560   3.757618   4.996251   5.347504   6.714630
    12  C    4.949285   4.229671   5.180716   5.253936   6.517059
    13  C    4.648336   3.671498   4.288101   4.185693   5.346653
    14  N    3.540382   2.442662   2.940673   2.966786   4.198687
    15  H    3.899904   2.781655   2.170499   1.086392   2.143104
    16  H    5.661294   4.685451   3.407938   2.155925   1.087124
    17  H    6.024137   5.374508   3.888259   3.404863   2.154681
    18  H    4.845969   4.631918   3.411623   3.881000   3.400860
    19  H    2.550975   2.672637   2.163659   3.406986   3.876447
    20  H    2.500161   2.696061   4.162243   4.933697   6.309809
    21  H    4.846226   4.636494   5.959050   6.364409   7.744189
    22  H    6.018170   5.313768   6.231007   6.217309   7.428716
    23  H    5.569658   4.505261   4.858339   4.527075   5.493168
                    6          7          8          9         10
     6  C    0.000000
     7  C    1.393771   0.000000
     8  C    2.415459   1.396150   0.000000
     9  C    5.270401   4.990385   3.800272   0.000000
    10  C    6.587354   6.222821   4.946122   1.392133   0.000000
    11  C    7.616976   7.383640   6.167569   2.394118   1.392115
    12  C    7.527354   7.486961   6.418751   2.738342   2.400508
    13  C    6.371578   6.450236   5.527036   2.307943   2.727481
    14  N    5.134168   5.129050   4.181157   1.357046   2.416279
    15  H    3.394823   3.880042   3.412183   2.875366   4.071616
    16  H    2.154285   3.399770   3.875388   5.166583   6.458236
    17  H    1.087130   2.153762   3.400901   6.335278   7.662125
    18  H    2.155275   1.086949   2.155128   5.916802   7.097539
    19  H    3.398311   2.151740   1.088248   4.060927   5.012476
    20  H    6.951081   6.432260   5.089514   2.159731   1.085841
    21  H    8.632809   8.347175   7.086842   3.385226   2.154497
    22  H    8.484493   8.505663   7.472290   3.822561   3.392880
    23  H    6.561073   6.805559   6.053618   3.272245   3.813515
                   11         12         13         14         15
    11  C    0.000000
    12  C    1.390003   0.000000
    13  C    2.382696   1.385386   0.000000
    14  N    2.799396   2.414792   1.350949   0.000000
    15  H    4.796919   4.585368   3.547794   2.526795   0.000000
    16  H    7.215361   6.870802   5.662604   4.681969   2.461131
    17  H    8.663825   8.511172   7.308914   6.119197   4.288444
    18  H    8.295313   8.446940   7.430568   6.111268   4.966916
    19  H    6.296394   6.714293   5.972801   4.663585   4.318750
    20  H    2.157866   3.390947   3.813035   3.392549   4.709265
    21  H    1.086570   2.155360   3.376252   3.885957   5.805043
    22  H    2.159344   1.084671   2.151531   3.386310   5.483761
    23  H    3.379667   2.155482   1.086768   2.063431   3.857087
                   16         17         18         19         20
    16  H    0.000000
    17  H    2.481131   0.000000
    18  H    4.298478   2.482689   0.000000
    19  H    4.963531   4.294961   2.474251   0.000000
    20  H    7.031785   8.035868   7.224073   4.977494   0.000000
    21  H    8.246109   9.689334   9.231718   7.126495   2.492099
    22  H    7.692853   9.436945   9.470375   7.777892   4.302142
    23  H    5.648419   7.402073   7.785450   6.599128   4.898704
                   21         22         23
    21  H    0.000000
    22  H    2.500435   0.000000
    23  H    4.293366   2.496639   0.000000
 Stoichiometry    C12H9NO
 Framework group  C1[X(C12H9NO)]
 Deg. of freedom    63
 Full point group                 C1      NOp   1
 Largest Abelian subgroup         C1      NOp   1
 Largest concise Abelian subgroup C1      NOp   1
                         Standard orientation:                         
 ---------------------------------------------------------------------
 Center     Atomic      Atomic             Coordinates (Angstroms)
 Number     Number       Type             X           Y           Z
 ---------------------------------------------------------------------
      1          8           0        0.026929    2.287175    0.200426
      2          6           0        0.029801    1.058972    0.103360
      3          6           0       -1.276986    0.349331    0.066224
      4          6           0       -1.462938   -0.918625    0.628821
      5          6           0       -2.721294   -1.525423    0.591059
      6          6           0       -3.800451   -0.865030    0.004587
      7          6           0       -3.627540    0.406263   -0.539943
      8          6           0       -2.371477    1.014757   -0.504212
      9          6           0        1.331346    0.335662    0.015402
     10          6           0        2.503888    1.017260    0.329413
     11          6           0        3.717008    0.343817    0.216272
     12          6           0        3.722929   -0.978538   -0.212038
     13          6           0        2.510098   -1.577211   -0.511915
     14          7           0        1.316292   -0.953317   -0.408723
     15          1           0       -0.643174   -1.445815    1.108720
     16          1           0       -2.859275   -2.513004    1.024055
     17          1           0       -4.778485   -1.338946   -0.022001
     18          1           0       -4.469575    0.926803   -0.988800
     19          1           0       -2.246696    2.011421   -0.922988
     20          1           0        2.474862    2.053674    0.651988
     21          1           0        4.648236    0.850278    0.454907
     22          1           0        4.652013   -1.528812   -0.314568
     23          1           0        2.466303   -2.607195   -0.855833
 ---------------------------------------------------------------------
 Rotational constants (GHZ):           1.7526088           0.4197818           0.3527441
 Standard basis: 6-31G(d) (6D, 7F)
 There are   228 symmetry adapted cartesian basis functions of A   symmetry.
 There are   228 symmetry adapted basis functions of A   symmetry.
   228 basis functions,   428 primitive gaussians,   228 cartesian basis functions
    48 alpha electrons       48 beta electrons
       nuclear repulsion energy       779.7419804216 Hartrees.
 NAtoms=   23 NActive=   23 NUniq=   23 SFac= 1.00D+00 NAtFMM=   60 NAOKFM=F Big=F
 Integral buffers will be    131072 words long.
 Raffenetti 2 integral format.
 Two-electron integral symmetry is turned on.
 One-electron integrals computed using PRISM.
 NBasis=   228 RedAO= T EigKep=  4.64D-04  NBF=   228
 NBsUse=   228 1.00D-06 EigRej= -1.00D+00 NBFU=   228
 ExpMin= 1.61D-01 ExpMax= 5.48D+03 ExpMxC= 8.25D+02 IAcc=3 IRadAn=         5 AccDes= 0.00D+00
 Harris functional with IExCor=  402 and IRadAn=       5 diagonalized for initial guess.
 HarFok:  IExCor=  402 AccDes= 0.00D+00 IRadAn=         5 IDoV= 1 UseB2=F ITyADJ=14
 ICtDFT=  3500011 ScaDFX=  1.000000  1.000000  1.000000  1.000000
 FoFCou: FMM=F IPFlag=           0 FMFlag=      100000 FMFlg1=           0
         NFxFlg=           0 DoJE=T BraDBF=F KetDBF=T FulRan=T
         wScrn=  0.000000 ICntrl=       500 IOpCl=  0 I1Cent=   200000004 NGrid=           0
         NMat0=    1 NMatS0=      1 NMatT0=    0 NMatD0=    1 NMtDS0=    0 NMtDT0=    0
 Petite list used in FoFCou.
 Requested convergence on RMS density matrix=1.00D-08 within 128 cycles.
 Requested convergence on MAX density matrix=1.00D-06.
 Requested convergence on             energy=1.00D-06.
 No special actions if energy rises.
 Integral accuracy reduced to 1.0D-05 until final iterations.
 Initial convergence to 1.0D-05 achieved.  Increase integral accuracy.
 SCF Done:  E(RB3LYP) =  -592.667202955     A.U. after   15 cycles
            NFock= 15  Conv=0.51D-08     -V/T= 2.0096

 **********************************************************************

            Population analysis using the SCF density.

 **********************************************************************

 Orbital symmetries:
       Occupied  (A) (A) (A) (A) (A) (A) (A) (A) (A) (A) (A) (A)
                 (A) (A) (A) (A) (A) (A) (A) (A) (A) (A) (A) (A)
                 (A) (A) (A) (A) (A) (A) (A) (A) (A) (A) (A) (A)
                 (A) (A) (A) (A) (A) (A) (A) (A) (A) (A) (A) (A)
       Virtual   (A) (A) (A) (A) (A) (A) (A) (A) (A) (A) (A) (A)
                 (A) (A) (A) (A) (A) (A) (A) (A) (A) (A) (A) (A)
                 (A) (A) (A) (A) (A) (A) (A) (A) (A) (A) (A) (A)
                 (A) (A) (A) (A) (A) (A) (A) (A) (A) (A) (A) (A)
                 (A) (A) (A) (A) (A) (A) (A) (A) (A) (A) (A) (A)
                 (A) (A) (A) (A) (A) (A) (A) (A) (A) (A) (A) (A)
                 (A) (A) (A) (A) (A) (A) (A) (A) (A) (A) (A) (A)
                 (A) (A) (A) (A) (A) (A) (A) (A) (A) (A) (A) (A)
                 (A) (A) (A) (A) (A) (A) (A) (A) (A) (A) (A) (A)
                 (A) (A) (A) (A) (A) (A) (A) (A) (A) (A) (A) (A)
                 (A) (A) (A) (A) (A) (A) (A) (A) (A) (A) (A) (A)
                 (A) (A) (A) (A) (A) (A) (A) (A) (A) (A) (A) (A)
                 (A) (A) (A) (A) (A) (A) (A) (A) (A) (A) (A) (A)
                 (A) (A) (A) (A) (A) (A) (A) (A) (A) (A) (A) (A)
                 (A) (A) (A) (A) (A) (A) (A) (A) (A) (A) (A) (A)
 The electronic state is 1-A.
 Alpha  occ. eigenvalues --  -19.13455 -14.34542 -10.27284 -10.23649 -10.23466
 Alpha  occ. eigenvalues --  -10.21909 -10.21314 -10.20887 -10.19507 -10.19340
 Alpha  occ. eigenvalues --  -10.19258 -10.19128 -10.18965 -10.18954  -1.03241
 Alpha  occ. eigenvalues --   -0.94877  -0.85383  -0.81528  -0.78332  -0.75555
 Alpha  occ. eigenvalues --   -0.74358  -0.66943  -0.64167  -0.61774  -0.60284
 Alpha  occ. eigenvalues --   -0.56435  -0.53116  -0.50742  -0.49195  -0.47395
 Alpha  occ. eigenvalues --   -0.45521  -0.44876  -0.43754  -0.42333  -0.42083
 Alpha  occ. eigenvalues --   -0.41798  -0.40551  -0.38315  -0.37720  -0.35530
 Alpha  occ. eigenvalues --   -0.35227  -0.34212  -0.29627  -0.27809  -0.27230
 Alpha  occ. eigenvalues --   -0.25711  -0.24734  -0.23928
 Alpha virt. eigenvalues --   -0.07202  -0.03339  -0.00973   0.00172   0.05651
 Alpha virt. eigenvalues --    0.08970   0.09938   0.13638   0.14346   0.14641
 Alpha virt. eigenvalues --    0.15813   0.16506   0.17231   0.17807   0.18835
 Alpha virt. eigenvalues --    0.19195   0.23694   0.24235   0.28007   0.29356
 Alpha virt. eigenvalues --    0.29967   0.30768   0.31802   0.33101   0.33467
 Alpha virt. eigenvalues --    0.37091   0.38993   0.44376   0.47053   0.49441
 Alpha virt. eigenvalues --    0.50921   0.51656   0.52560   0.53997   0.54737
 Alpha virt. eigenvalues --    0.56218   0.57119   0.57697   0.58275   0.58580
 Alpha virt. eigenvalues --    0.59201   0.59308   0.59631   0.60689   0.60911
 Alpha virt. eigenvalues --    0.61535   0.62190   0.63512   0.64767   0.65341
 Alpha virt. eigenvalues --    0.65911   0.66833   0.69767   0.69931   0.74151
 Alpha virt. eigenvalues --    0.76453   0.77371   0.81324   0.81870   0.82785
 Alpha virt. eigenvalues --    0.83378   0.83677   0.84136   0.85318   0.87132
 Alpha virt. eigenvalues --    0.87908   0.88519   0.89348   0.91093   0.92867
 Alpha virt. eigenvalues --    0.94079   0.95465   0.96474   0.98852   1.01509
 Alpha virt. eigenvalues --    1.02112   1.04124   1.06698   1.08368   1.10621
 Alpha virt. eigenvalues --    1.11450   1.12256   1.15882   1.18358   1.21619
 Alpha virt. eigenvalues --    1.23012   1.23767   1.24923   1.27267   1.28063
 Alpha virt. eigenvalues --    1.30195   1.39549   1.41841   1.42747   1.44142
 Alpha virt. eigenvalues --    1.44430   1.45828   1.46732   1.47028   1.48977
 Alpha virt. eigenvalues --    1.49294   1.51294   1.52340   1.53125   1.55098
 Alpha virt. eigenvalues --    1.64190   1.69955   1.73557   1.76375   1.77529
 Alpha virt. eigenvalues --    1.78746   1.80764   1.83336   1.85006   1.86293
 Alpha virt. eigenvalues --    1.89554   1.90212   1.92194   1.92743   1.97470
 Alpha virt. eigenvalues --    1.99574   2.00592   2.04080   2.04689   2.06830
 Alpha virt. eigenvalues --    2.11644   2.13706   2.14208   2.14578   2.15604
 Alpha virt. eigenvalues --    2.16263   2.17092   2.17918   2.23727   2.28395
 Alpha virt. eigenvalues --    2.29012   2.30257   2.30561   2.31320   2.33269
 Alpha virt. eigenvalues --    2.38714   2.41446   2.48285   2.51446   2.56876
 Alpha virt. eigenvalues --    2.57928   2.59766   2.61135   2.62152   2.65505
 Alpha virt. eigenvalues --    2.67939   2.68261   2.71186   2.72978   2.74013
 Alpha virt. eigenvalues --    2.74810   2.76535   2.81240   2.83328   2.89518
 Alpha virt. eigenvalues --    2.95496   2.99817   3.14173   3.19721   3.38858
 Alpha virt. eigenvalues --    3.43229   3.95491   4.04619   4.08900   4.10561
 Alpha virt. eigenvalues --    4.11872   4.13937   4.18919   4.26087   4.33360
 Alpha virt. eigenvalues --    4.35002   4.35658   4.49722   4.60613   4.72892
          Condensed to atoms (all electrons):
               1          2          3          4          5          6
     1  O    8.069582   0.566538  -0.103682   0.002069  -0.000077  -0.000010
     2  C    0.566538   4.760698   0.260918  -0.040274   0.004965   0.000295
     3  C   -0.103682   0.260918   4.967932   0.522045  -0.012315  -0.035346
     4  C    0.002069  -0.040274   0.522045   4.954939   0.519973  -0.035357
     5  C   -0.000077   0.004965  -0.012315   0.519973   4.877526   0.547809
     6  C   -0.000010   0.000295  -0.035346  -0.035357   0.547809   4.849675
     7  C    0.000770   0.005781  -0.018953  -0.042756  -0.027185   0.541340
     8  C    0.003277  -0.025519   0.485262  -0.058797  -0.043793  -0.032036
     9  C   -0.102559   0.262841  -0.095904  -0.007351  -0.000019  -0.000001
    10  C    0.006738  -0.048715   0.013347   0.000058   0.000006   0.000000
    11  C    0.001088   0.005412  -0.000109   0.000004   0.000000   0.000000
    12  C   -0.000016   0.000134   0.000005  -0.000023  -0.000000   0.000000
    13  C   -0.000084   0.004559  -0.000060  -0.000077  -0.000017  -0.000000
    14  N    0.002180  -0.061000  -0.000037  -0.006035  -0.000184   0.000019
    15  H   -0.000000  -0.011460  -0.037758   0.352549  -0.043964   0.004794
    16  H    0.000001  -0.000131   0.003654  -0.039249   0.358278  -0.043780
    17  H    0.000000   0.000005   0.000530   0.004979  -0.043165   0.358668
    18  H    0.000001  -0.000149   0.003713   0.000782   0.004590  -0.043846
    19  H    0.010797  -0.008239  -0.044054   0.005734   0.000322   0.004583
    20  H    0.013367  -0.005483   0.000498  -0.000021   0.000000   0.000000
    21  H    0.000002  -0.000098   0.000002   0.000000   0.000000   0.000000
    22  H   -0.000000   0.000008  -0.000001   0.000000   0.000000  -0.000000
    23  H    0.000001  -0.000137   0.000009   0.000039   0.000002  -0.000000
               7          8          9         10         11         12
     1  O    0.000770   0.003277  -0.102559   0.006738   0.001088  -0.000016
     2  C    0.005781  -0.025519   0.262841  -0.048715   0.005412   0.000134
     3  C   -0.018953   0.485262  -0.095904   0.013347  -0.000109   0.000005
     4  C   -0.042756  -0.058797  -0.007351   0.000058   0.000004  -0.000023
     5  C   -0.027185  -0.043793  -0.000019   0.000006   0.000000  -0.000000
     6  C    0.541340  -0.032036  -0.000001   0.000000   0.000000   0.000000
     7  C    4.895245   0.506033  -0.000130  -0.000001  -0.000000  -0.000000
     8  C    0.506033   4.977503   0.009090  -0.000352  -0.000000   0.000000
     9  C   -0.000130   0.009090   5.021367   0.413809  -0.021033  -0.041610
    10  C   -0.000001  -0.000352   0.413809   5.083630   0.490723  -0.022725
    11  C   -0.000000  -0.000000  -0.021033   0.490723   4.880013   0.530258
    12  C   -0.000000   0.000000  -0.041610  -0.022725   0.530258   4.953890
    13  C    0.000000   0.000013  -0.044412  -0.046625  -0.029395   0.489201
    14  N   -0.000022  -0.000444   0.403268  -0.069194  -0.035669  -0.027809
    15  H    0.000270   0.005923   0.005540  -0.000017  -0.000005   0.000031
    16  H    0.004633   0.000806   0.000003  -0.000000  -0.000000  -0.000000
    17  H   -0.043660   0.004717   0.000000   0.000000  -0.000000   0.000000
    18  H    0.359305  -0.039506   0.000002  -0.000000   0.000000   0.000000
    19  H   -0.043992   0.357565   0.000687  -0.000015  -0.000000   0.000000
    20  H   -0.000000  -0.000007  -0.037119   0.354325  -0.042855   0.004896
    21  H    0.000000  -0.000000   0.003852  -0.040997   0.365157  -0.044880
    22  H    0.000000   0.000000   0.000410   0.004558  -0.041075   0.354330
    23  H   -0.000000  -0.000000   0.005111   0.000413   0.004059  -0.066158
              13         14         15         16         17         18
     1  O   -0.000084   0.002180  -0.000000   0.000001   0.000000   0.000001
     2  C    0.004559  -0.061000  -0.011460  -0.000131   0.000005  -0.000149
     3  C   -0.000060  -0.000037  -0.037758   0.003654   0.000530   0.003713
     4  C   -0.000077  -0.006035   0.352549  -0.039249   0.004979   0.000782
     5  C   -0.000017  -0.000184  -0.043964   0.358278  -0.043165   0.004590
     6  C   -0.000000   0.000019   0.004794  -0.043780   0.358668  -0.043846
     7  C    0.000000  -0.000022   0.000270   0.004633  -0.043660   0.359305
     8  C    0.000013  -0.000444   0.005923   0.000806   0.004717  -0.039506
     9  C   -0.044412   0.403268   0.005540   0.000003   0.000000   0.000002
    10  C   -0.046625  -0.069194  -0.000017  -0.000000   0.000000  -0.000000
    11  C   -0.029395  -0.035669  -0.000005  -0.000000  -0.000000   0.000000
    12  C    0.489201  -0.027809   0.000031  -0.000000   0.000000   0.000000
    13  C    4.788522   0.453045   0.000508   0.000000  -0.000000   0.000000
    14  N    0.453045   6.849212   0.008636  -0.000021   0.000000  -0.000000
    15  H    0.000508   0.008636   0.577220  -0.005453  -0.000171   0.000016
    16  H    0.000000  -0.000021  -0.005453   0.595346  -0.005655  -0.000182
    17  H   -0.000000   0.000000  -0.000171  -0.005655   0.597006  -0.005608
    18  H    0.000000  -0.000000   0.000016  -0.000182  -0.005608   0.592301
    19  H    0.000000  -0.000021  -0.000139   0.000017  -0.000167  -0.005185
    20  H    0.000148   0.004514  -0.000013  -0.000000   0.000000  -0.000000
    21  H    0.004979   0.000013   0.000000  -0.000000   0.000000  -0.000000
    22  H   -0.035977   0.004380  -0.000001   0.000000  -0.000000   0.000000
    23  H    0.379253  -0.054211  -0.000067   0.000000  -0.000000  -0.000000
              19         20         21         22         23
     1  O    0.010797   0.013367   0.000002  -0.000000   0.000001
     2  C   -0.008239  -0.005483  -0.000098   0.000008  -0.000137
     3  C   -0.044054   0.000498   0.000002  -0.000001   0.000009
     4  C    0.005734  -0.000021   0.000000   0.000000   0.000039
     5  C    0.000322   0.000000   0.000000   0.000000   0.000002
     6  C    0.004583   0.000000   0.000000  -0.000000  -0.000000
     7  C   -0.043992  -0.000000   0.000000   0.000000  -0.000000
     8  C    0.357565  -0.000007  -0.000000   0.000000  -0.000000
     9  C    0.000687  -0.037119   0.003852   0.000410   0.005111
    10  C   -0.000015   0.354325  -0.040997   0.004558   0.000413
    11  C   -0.000000  -0.042855   0.365157  -0.041075   0.004059
    12  C    0.000000   0.004896  -0.044880   0.354330  -0.066158
    13  C    0.000000   0.000148   0.004979  -0.035977   0.379253
    14  N   -0.000021   0.004514   0.000013   0.004380  -0.054211
    15  H   -0.000139  -0.000013   0.000000  -0.000001  -0.000067
    16  H    0.000017  -0.000000  -0.000000   0.000000   0.000000
    17  H   -0.000167   0.000000   0.000000  -0.000000  -0.000000
    18  H   -0.005185  -0.000000  -0.000000   0.000000  -0.000000
    19  H    0.568743  -0.000005  -0.000000   0.000000  -0.000000
    20  H   -0.000005   0.539890  -0.005039  -0.000108   0.000025
    21  H   -0.000000  -0.005039   0.571590  -0.005409  -0.000166
    22  H    0.000000  -0.000108  -0.005409   0.573480  -0.002293
    23  H   -0.000000   0.000025  -0.000166  -0.002293   0.585815
 Mulliken charges:
               1
     1  O   -0.469982
     2  C    0.329051
     3  C    0.090301
     4  C   -0.133233
     5  C   -0.142752
     6  C   -0.116807
     7  C   -0.136679
     8  C   -0.149734
     9  C    0.224158
    10  C   -0.138966
    11  C   -0.106573
    12  C   -0.129523
    13  C    0.036419
    14  N   -0.470619
    15  H    0.143563
    16  H    0.131732
    17  H    0.132521
    18  H    0.133768
    19  H    0.153369
    20  H    0.172986
    21  H    0.150994
    22  H    0.147698
    23  H    0.148306
 Sum of Mulliken charges =  -0.00000
 Mulliken charges with hydrogens summed into heavy atoms:
               1
     1  O   -0.469982
     2  C    0.329051
     3  C    0.090301
     4  C    0.010331
     5  C   -0.011019
     6  C    0.015715
     7  C   -0.002912
     8  C    0.003634
     9  C    0.224158
    10  C    0.034020
    11  C    0.044421
    12  C    0.018175
    13  C    0.184725
    14  N   -0.470619
 Electronic spatial extent (au):  <R**2>=           3034.3658
 Charge=             -0.0000 electrons
 Dipole moment (field-independent basis, Debye):
    X=              1.9590    Y=             -2.1040    Z=              0.2069  Tot=              2.8822
 Quadrupole moment (field-independent basis, Debye-Ang):
   XX=            -58.4440   YY=            -80.2853   ZZ=            -80.6227
   XY=             -0.0884   XZ=              1.9021   YZ=             -2.1240
 Traceless Quadrupole moment (field-independent basis, Debye-Ang):
   XX=             14.6734   YY=             -7.1679   ZZ=             -7.5054
   XY=             -0.0884   XZ=              1.9021   YZ=             -2.1240
 Octapole moment (field-independent basis, Debye-Ang**2):
  XXX=             31.0721  YYY=            -18.8458  ZZZ=              0.6045  XYY=              5.8392
  XXY=             -5.7092  XXZ=             -5.9290  XZZ=              1.4346  YZZ=              3.8676
  YYZ=             -1.2176  XYZ=             12.6900
 Hexadecapole moment (field-independent basis, Debye-Ang**3):
 XXXX=          -2781.7454 YYYY=           -749.1302 ZZZZ=           -169.6633 XXXY=              0.8013
 XXXZ=             44.4323 YYYX=             -6.2236 YYYZ=             -5.1329 ZZZX=              1.1826
 ZZZY=              0.7232 XXYY=           -591.7213 XXZZ=           -595.0967 YYZZ=           -144.6360
 XXYZ=              0.8148 YYXZ=             -5.2936 ZZXY=             -3.1669
 N-N= 7.797419804216D+02 E-N=-2.936148361241D+03  KE= 5.870594866296D+02
 Calling FoFJK, ICntrl=      2127 FMM=F ISym2X=0 I1Cent= 0 IOpClX= 0 NMat=1 NMatS=1 NMatT=0.
 ***** Axes restored to original set *****
 -------------------------------------------------------------------
 Center     Atomic                   Forces (Hartrees/Bohr)
 Number     Number              X              Y              Z
 -------------------------------------------------------------------
      1        8           0.005449058    0.004710126   -0.000406838
      2        6          -0.009043629   -0.017726952    0.004822613
      3        6           0.001645245    0.004753704   -0.000911531
      4        6          -0.005149714    0.006870989   -0.003747338
      5        6           0.001782172   -0.001742050   -0.001287291
      6        6          -0.002089966    0.001900781   -0.001059576
      7        6           0.003747021   -0.002660792    0.001312119
      8        6          -0.006580427   -0.001228616    0.002796991
      9        6          -0.002508725    0.017534057   -0.001564520
     10        6           0.009421956   -0.003727905   -0.001525532
     11        6           0.001835730   -0.004484433    0.000290420
     12        6           0.005820617   -0.001304806   -0.000831643
     13        6          -0.019215183   -0.001453836    0.004196702
     14        7           0.013816819   -0.004844990   -0.003115505
     15        1           0.000501416   -0.001139871    0.003484871
     16        1           0.000353543   -0.000580545   -0.000185750
     17        1           0.000060093    0.000268792    0.000104626
     18        1           0.000452572    0.000052188    0.000109340
     19        1           0.002298100    0.001504692   -0.002512368
     20        1          -0.003293274    0.001264865    0.000557571
     21        1           0.000004891   -0.000200031   -0.000206880
     22        1           0.000422024    0.001048303   -0.000285750
     23        1           0.000269662    0.001186331   -0.000034730
 -------------------------------------------------------------------
 Cartesian Forces:  Max     0.019215183 RMS     0.005129875

 GradGradGradGradGradGradGradGradGradGradGradGradGradGradGradGradGradGrad
 Berny optimization.
 FormGI is forming the generalized inverse of G from B-inverse, IUseBI=4.
 Internal  Forces:  Max     0.011899929 RMS     0.002654824
 Search for a local minimum.
 Step number   1 out of a maximum of  123
 All quantities printed in internal units (Hartrees-Bohrs-Radians)
 Mixed Optimization -- RFO/linear search
 Second derivative matrix not updated -- first step.
 ITU=  0
     Eigenvalues ---    0.00877   0.00904   0.00931   0.01730   0.01753
     Eigenvalues ---    0.02083   0.02102   0.02108   0.02127   0.02141
     Eigenvalues ---    0.02154   0.02158   0.02167   0.02193   0.02202
     Eigenvalues ---    0.02208   0.02237   0.02251   0.02292   0.02303
     Eigenvalues ---    0.15999   0.16000   0.16000   0.16000   0.16000
     Eigenvalues ---    0.16000   0.16000   0.16000   0.16000   0.21998
     Eigenvalues ---    0.22000   0.22000   0.22418   0.23468   0.24413
     Eigenvalues ---    0.24966   0.24990   0.24999   0.25000   0.33273
     Eigenvalues ---    0.33725   0.35016   0.35146   0.35147   0.35168
     Eigenvalues ---    0.35189   0.35212   0.35233   0.35298   0.35436
     Eigenvalues ---    0.41749   0.41974   0.43181   0.44647   0.45584
     Eigenvalues ---    0.46118   0.46159   0.46539   0.47082   0.47736
     Eigenvalues ---    0.52202   0.53778   0.90243
 RFO step:  Lambda=-2.91508712D-03 EMin= 8.76783239D-03
 Linear search not attempted -- first point.
 Iteration  1 RMS(Cart)=  0.06028278 RMS(Int)=  0.00107976
 Iteration  2 RMS(Cart)=  0.00201319 RMS(Int)=  0.00010083
 Iteration  3 RMS(Cart)=  0.00000170 RMS(Int)=  0.00010083
 Iteration  4 RMS(Cart)=  0.00000000 RMS(Int)=  0.00010083
 Variable       Old X    -DE/DX   Delta X   Delta X   Delta X     New X
                                 (Linear)    (Quad)   (Total)
    R1        2.32821  -0.00415   0.00000  -0.00459  -0.00459   2.32362
    R2        2.81097   0.00605   0.00000   0.01778   0.01778   2.82876
    R3        2.81876   0.00859   0.00000   0.02560   0.02560   2.84436
    R4        2.64481   0.00356   0.00000   0.00778   0.00776   2.65257
    R5        2.64973   0.00067   0.00000   0.00139   0.00140   2.65113
    R6        2.64095  -0.00205   0.00000  -0.00430  -0.00432   2.63662
    R7        2.05298  -0.00239   0.00000  -0.00673  -0.00673   2.04625
    R8        2.63524   0.00134   0.00000   0.00293   0.00293   2.63816
    R9        2.05437  -0.00036   0.00000  -0.00101  -0.00101   2.05336
   R10        2.63384   0.00323   0.00000   0.00685   0.00686   2.64071
   R11        2.05438   0.00004   0.00000   0.00011   0.00011   2.05449
   R12        2.63834  -0.00294   0.00000  -0.00643  -0.00641   2.63193
   R13        2.05404  -0.00026   0.00000  -0.00072  -0.00072   2.05331
   R14        2.05649  -0.00221   0.00000  -0.00626  -0.00626   2.05023
   R15        2.63075   0.00705   0.00000   0.01468   0.01469   2.64544
   R16        2.56445  -0.00930   0.00000  -0.01839  -0.01839   2.54606
   R17        2.63072  -0.00050   0.00000   0.00001   0.00002   2.63073
   R18        2.05194  -0.00133   0.00000  -0.00374  -0.00374   2.04820
   R19        2.62673   0.00385   0.00000   0.00937   0.00936   2.63609
   R20        2.05332   0.00013   0.00000   0.00035   0.00035   2.05367
   R21        2.61800   0.00910   0.00000   0.01894   0.01893   2.63693
   R22        2.04973   0.00098   0.00000   0.00273   0.00273   2.05246
   R23        2.55292  -0.01190   0.00000  -0.02249  -0.02250   2.53042
   R24        2.05369   0.00115   0.00000   0.00325   0.00325   2.05695
    A1        2.06633   0.00782   0.00000   0.03082   0.03055   2.09688
    A2        2.08299  -0.00547   0.00000  -0.02175  -0.02199   2.06100
    A3        2.13383  -0.00235   0.00000  -0.00942  -0.00967   2.12415
    A4        2.13992   0.00374   0.00000   0.01462   0.01460   2.15452
    A5        2.05951  -0.00282   0.00000  -0.01137  -0.01137   2.04814
    A6        2.08261  -0.00093   0.00000  -0.00403  -0.00415   2.07846
    A7        2.09686   0.00050   0.00000   0.00256   0.00244   2.09930
    A8        2.11407  -0.00273   0.00000  -0.01650  -0.01645   2.09763
    A9        2.07221   0.00223   0.00000   0.01390   0.01395   2.08616
   A10        2.09733  -0.00005   0.00000   0.00022   0.00009   2.09742
   A11        2.09204  -0.00040   0.00000  -0.00268  -0.00267   2.08937
   A12        2.09381   0.00045   0.00000   0.00252   0.00253   2.09634
   A13        2.09469  -0.00056   0.00000  -0.00237  -0.00243   2.09226
   A14        2.09445   0.00019   0.00000   0.00063   0.00066   2.09510
   A15        2.09403   0.00037   0.00000   0.00177   0.00180   2.09582
   A16        2.09342   0.00031   0.00000   0.00108   0.00105   2.09446
   A17        2.09676   0.00018   0.00000   0.00147   0.00148   2.09823
   A18        2.09300  -0.00048   0.00000  -0.00257  -0.00256   2.09044
   A19        2.10113   0.00075   0.00000   0.00297   0.00294   2.10407
   A20        2.09633  -0.00345   0.00000  -0.02038  -0.02036   2.07597
   A21        2.08572   0.00270   0.00000   0.01741   0.01743   2.10314
   A22        2.07626  -0.00291   0.00000  -0.01046  -0.01048   2.06578
   A23        2.05934   0.00253   0.00000   0.01108   0.01107   2.07041
   A24        2.14705   0.00037   0.00000  -0.00089  -0.00090   2.14615
   A25        2.07007   0.00010   0.00000   0.00292   0.00293   2.07299
   A26        2.10809  -0.00345   0.00000  -0.02233  -0.02234   2.08575
   A27        2.10502   0.00335   0.00000   0.01940   0.01940   2.12442
   A28        2.08170  -0.00362   0.00000  -0.01056  -0.01056   2.07114
   A29        2.09845   0.00167   0.00000   0.00440   0.00440   2.10285
   A30        2.10302   0.00196   0.00000   0.00617   0.00617   2.10919
   A31        2.06471  -0.00041   0.00000   0.00196   0.00195   2.06666
   A32        2.11228   0.00085   0.00000   0.00296   0.00297   2.11524
   A33        2.10619  -0.00044   0.00000  -0.00491  -0.00491   2.10129
   A34        2.16218  -0.00038   0.00000  -0.00299  -0.00300   2.15918
   A35        2.10986  -0.00019   0.00000  -0.00085  -0.00085   2.10901
   A36        2.01114   0.00057   0.00000   0.00385   0.00385   2.01499
   A37        2.04061   0.00394   0.00000   0.00959   0.00959   2.05020
    D1       -2.54953  -0.00118   0.00000  -0.10244  -0.10272  -2.65225
    D2        0.54027  -0.00157   0.00000  -0.12039  -0.12072   0.41955
    D3        0.60152  -0.00064   0.00000  -0.05992  -0.05959   0.54193
    D4       -2.59187  -0.00102   0.00000  -0.07787  -0.07759  -2.66946
    D5        0.23785   0.00003   0.00000   0.00714   0.00681   0.24466
    D6       -2.86989   0.00021   0.00000   0.01594   0.01563  -2.85425
    D7       -2.91329  -0.00044   0.00000  -0.03550  -0.03519  -2.94848
    D8        0.26216  -0.00026   0.00000  -0.02669  -0.02637   0.23579
    D9        3.11623  -0.00118   0.00000  -0.04786  -0.04798   3.06826
   D10       -0.01550  -0.00105   0.00000  -0.04277  -0.04289  -0.05838
   D11        0.02709  -0.00074   0.00000  -0.02949  -0.02949  -0.00239
   D12       -3.10463  -0.00061   0.00000  -0.02439  -0.02440  -3.12903
   D13       -3.11823   0.00042   0.00000   0.02317   0.02300  -3.09523
   D14        0.02340   0.00040   0.00000   0.02183   0.02171   0.04511
   D15       -0.02668   0.00019   0.00000   0.00641   0.00640  -0.02028
   D16        3.11495   0.00018   0.00000   0.00508   0.00511   3.12006
   D17       -0.01112   0.00081   0.00000   0.03369   0.03369   0.02257
   D18        3.13509   0.00044   0.00000   0.01794   0.01799  -3.13011
   D19        3.12084   0.00066   0.00000   0.02855   0.02846  -3.13388
   D20       -0.01614   0.00029   0.00000   0.01280   0.01276  -0.00337
   D21       -0.00564  -0.00034   0.00000  -0.01454  -0.01452  -0.02016
   D22       -3.14001  -0.00045   0.00000  -0.01909  -0.01908   3.12410
   D23        3.13134   0.00003   0.00000   0.00121   0.00122   3.13256
   D24       -0.00304  -0.00009   0.00000  -0.00333  -0.00333  -0.00637
   D25        0.00611  -0.00020   0.00000  -0.00856  -0.00855  -0.00244
   D26       -3.13108  -0.00008   0.00000  -0.00288  -0.00290  -3.13398
   D27        3.14048  -0.00009   0.00000  -0.00402  -0.00400   3.13648
   D28        0.00329   0.00003   0.00000   0.00166   0.00165   0.00494
   D29        0.01017   0.00029   0.00000   0.01266   0.01261   0.02278
   D30       -3.13146   0.00031   0.00000   0.01398   0.01392  -3.11755
   D31       -3.13582   0.00017   0.00000   0.00700   0.00699  -3.12882
   D32        0.00574   0.00019   0.00000   0.00832   0.00830   0.01404
   D33       -3.11707   0.00024   0.00000   0.01190   0.01183  -3.10524
   D34        0.02014   0.00018   0.00000   0.00942   0.00940   0.02954
   D35       -0.01114   0.00009   0.00000   0.00286   0.00284  -0.00830
   D36        3.12607   0.00003   0.00000   0.00038   0.00041   3.12648
   D37        3.11377  -0.00043   0.00000  -0.01576  -0.01583   3.09794
   D38        0.00751  -0.00018   0.00000  -0.00639  -0.00639   0.00111
   D39        0.00679   0.00002   0.00000   0.00191   0.00189   0.00868
   D40       -3.14126   0.00007   0.00000   0.00363   0.00363  -3.13763
   D41       -3.13043   0.00010   0.00000   0.00449   0.00448  -3.12595
   D42        0.00470   0.00014   0.00000   0.00621   0.00623   0.01093
   D43        0.00040  -0.00008   0.00000  -0.00290  -0.00288  -0.00248
   D44        3.13681   0.00002   0.00000   0.00097   0.00100   3.13781
   D45       -3.13472  -0.00013   0.00000  -0.00463  -0.00463  -3.13934
   D46        0.00169  -0.00003   0.00000  -0.00075  -0.00074   0.00095
   D47       -0.00418  -0.00002   0.00000  -0.00084  -0.00082  -0.00500
   D48        3.13541   0.00001   0.00000   0.00046   0.00046   3.13587
   D49       -3.14061  -0.00013   0.00000  -0.00473  -0.00469   3.13788
   D50       -0.00103  -0.00009   0.00000  -0.00342  -0.00341  -0.00444
   D51        0.00032   0.00013   0.00000   0.00536   0.00535   0.00568
   D52       -3.13937   0.00010   0.00000   0.00412   0.00414  -3.13523
         Item               Value     Threshold  Converged?
 Maximum Force            0.011900     0.000015     NO 
 RMS     Force            0.002655     0.000010     NO 
 Maximum Displacement     0.228919     0.000060     NO 
 RMS     Displacement     0.059731     0.000040     NO 
 Predicted change in Energy=-1.538088D-03
 GradGradGradGradGradGradGradGradGradGradGradGradGradGradGradGradGradGrad

                          Input orientation:                          
 ---------------------------------------------------------------------
 Center     Atomic      Atomic             Coordinates (Angstroms)
 Number     Number       Type             X           Y           Z
 ---------------------------------------------------------------------
      1          8           0        0.304794   -2.295537    0.620571
      2          6           0        0.169091   -1.146119    0.205410
      3          6           0       -1.191959   -0.526478    0.139560
      4          6           0       -1.544284    0.470402   -0.783705
      5          6           0       -2.856548    0.940398   -0.845090
      6          6           0       -3.822433    0.440958    0.030465
      7          6           0       -3.478913   -0.549608    0.954318
      8          6           0       -2.175693   -1.038937    0.998527
      9          6           0        1.407959   -0.375131   -0.163802
     10          6           0        2.610716   -1.077334   -0.305314
     11          6           0        3.770280   -0.367026   -0.603447
     12          6           0        3.689778    1.018977   -0.739179
     13          6           0        2.447042    1.631329   -0.572488
     14          7           0        1.320615    0.963037   -0.293951
     15          1           0       -0.801881    0.870244   -1.463030
     16          1           0       -3.121504    1.704646   -1.570625
     17          1           0       -4.840500    0.820448   -0.008351
     18          1           0       -4.227926   -0.947335    1.633597
     19          1           0       -1.905531   -1.823628    1.697349
     20          1           0        2.619187   -2.153286   -0.174896
     21          1           0        4.718416   -0.884507   -0.723003
     22          1           0        4.569265    1.613850   -0.967824
     23          1           0        2.340029    2.710640   -0.664392
 ---------------------------------------------------------------------
                    Distance matrix (angstroms):
                    1          2          3          4          5
     1  O    0.000000
     2  C    1.229608   0.000000
     3  C    2.366688   1.496913   0.000000
     4  C    3.611302   2.554827   1.403681   0.000000
     5  C    4.755368   3.822511   2.427368   1.395242   0.000000
     6  C    4.987047   4.299033   2.804858   2.419443   1.396056
     7  C    4.180442   3.771554   2.427864   2.793552   2.417711
     8  C    2.806192   2.477607   1.402915   2.419325   2.789310
     9  C    2.349505   1.505169   2.621928   3.132882   4.514509
    10  C    2.767410   2.495416   3.868034   4.459638   5.852655
    11  C    4.150539   3.772241   5.020090   5.383157   6.758890
    12  C    4.928797   4.239708   5.195379   5.262920   6.547654
    13  C    4.629568   3.675378   4.290160   4.162097   5.355349
    14  N    3.533631   2.454365   2.952899   2.947914   4.213425
    15  H    3.948201   2.791450   2.161316   1.082829   2.146725
    16  H    5.704588   4.702040   3.409661   2.151795   1.086590
    17  H    6.048054   5.386008   3.892036   3.404225   2.156522
    18  H    4.836261   4.627417   3.409745   3.880111   3.404130
    19  H    2.503535   2.643664   2.149067   3.398338   3.874050
    20  H    2.451411   2.676189   4.155746   4.958718   6.324849
    21  H    4.824547   4.650457   5.983705   6.407876   7.792641
    22  H    5.999335   5.324982   6.244918   6.222287   7.457298
    23  H    5.554739   4.510446   4.858005   4.485621   5.492797
                    6          7          8          9         10
     6  C    0.000000
     7  C    1.397402   0.000000
     8  C    2.416399   1.392759   0.000000
     9  C    5.297239   5.016189   3.825469   0.000000
    10  C    6.618411   6.240893   4.960966   1.399906   0.000000
    11  C    7.661852   7.416925   6.194545   2.402897   1.392124
    12  C    7.573624   7.531170   6.454331   2.735195   2.397318
    13  C    6.409903   6.496504   5.564898   2.296214   2.726724
    14  N    5.179648   5.184760   4.231142   1.347316   2.414043
    15  H    3.396844   3.876345   3.404643   2.849973   4.096240
    16  H    2.156779   3.403636   3.875867   5.178867   6.496058
    17  H    1.087189   2.158172   3.401810   6.363711   7.694829
    18  H    2.159123   1.086566   2.150201   5.943169   7.109381
    19  H    3.403140   2.156560   1.084933   4.067093   4.996409
    20  H    6.947427   6.405758   5.060590   2.151519   1.083861
    21  H    8.675867   8.373874   7.107479   3.395776   2.157324
    22  H    8.531873   8.552681   7.509878   3.820517   3.393715
    23  H    6.603804   6.863638   6.100523   3.262105   3.814571
                   11         12         13         14         15
    11  C    0.000000
    12  C    1.394958   0.000000
    13  C    2.396944   1.395405   0.000000
    14  N    2.804589   2.411284   1.339043   0.000000
    15  H    4.813977   4.552041   3.453667   2.424942   0.000000
    16  H    7.261126   6.896014   5.657770   4.681058   2.467480
    17  H    8.712622   8.563829   7.354186   6.169379   4.292903
    18  H    8.325408   8.496263   7.488092   6.176671   4.962910
    19  H    6.295251   6.732351   6.002814   4.705188   4.296857
    20  H    2.167809   3.395267   3.809335   3.378156   4.743915
    21  H    1.086757   2.163702   3.392820   3.891344   5.839560
    22  H    2.166799   1.086117   2.158802   3.381034   5.444941
    23  H    3.394313   2.165442   1.088490   2.056830   3.727799
                   16         17         18         19         20
    16  H    0.000000
    17  H    2.485448   0.000000
    18  H    4.303976   2.489236   0.000000
    19  H    4.960540   4.302858   2.483036   0.000000
    20  H    7.056007   8.032295   7.183865   4.907856   0.000000
    21  H    8.299791   9.736040   9.251732   7.114543   2.513361
    22  H    7.714891   9.491773   9.524580   7.800153   4.315420
    23  H    5.626867   7.454074   7.861270   6.645464   4.896460
                   21         22         23
    21  H    0.000000
    22  H    2.514750   0.000000
    23  H    4.311060   2.502901   0.000000
 Stoichiometry    C12H9NO
 Framework group  C1[X(C12H9NO)]
 Deg. of freedom    63
 Full point group                 C1      NOp   1
 Largest Abelian subgroup         C1      NOp   1
 Largest concise Abelian subgroup C1      NOp   1
                         Standard orientation:                         
 ---------------------------------------------------------------------
 Center     Atomic      Atomic             Coordinates (Angstroms)
 Number     Number       Type             X           Y           Z
 ---------------------------------------------------------------------
      1          8           0        0.051585    2.282416    0.159868
      2          6           0        0.025927    1.054324    0.104489
      3          6           0       -1.283774    0.331594    0.048868
      4          6           0       -1.470151   -0.970654    0.538497
      5          6           0       -2.739635   -1.549509    0.532641
      6          6           0       -3.828907   -0.846685    0.014473
      7          6           0       -3.651010    0.449154   -0.477344
      8          6           0       -2.389384    1.038375   -0.447376
      9          6           0        1.338047    0.320859    0.027643
     10          6           0        2.511846    1.025432    0.320062
     11          6           0        3.733630    0.367452    0.209085
     12          6           0        3.740744   -0.966258   -0.199665
     13          6           0        2.519688   -1.582361   -0.476419
     14          7           0        1.335269   -0.967381   -0.366935
     15          1           0       -0.631326   -1.527961    0.936368
     16          1           0       -2.875260   -2.554149    0.923771
     17          1           0       -4.814102   -1.306068   -0.003935
     18          1           0       -4.496273    1.003879   -0.875386
     19          1           0       -2.246391    2.052097   -0.806541
     20          1           0        2.449727    2.065280    0.619414
     21          1           0        4.661744    0.886652    0.432864
     22          1           0        4.670581   -1.517881   -0.303417
     23          1           0        2.479613   -2.619846   -0.803265
 ---------------------------------------------------------------------
 Rotational constants (GHZ):           1.7671415           0.4171972           0.3486483
 Standard basis: 6-31G(d) (6D, 7F)
 There are   228 symmetry adapted cartesian basis functions of A   symmetry.
 There are   228 symmetry adapted basis functions of A   symmetry.
   228 basis functions,   428 primitive gaussians,   228 cartesian basis functions
    48 alpha electrons       48 beta electrons
       nuclear repulsion energy       778.6599510069 Hartrees.
 NAtoms=   23 NActive=   23 NUniq=   23 SFac= 1.00D+00 NAtFMM=   60 NAOKFM=F Big=F
 Integral buffers will be    131072 words long.
 Raffenetti 2 integral format.
 Two-electron integral symmetry is turned on.
 One-electron integrals computed using PRISM.
 NBasis=   228 RedAO= T EigKep=  4.64D-04  NBF=   228
 NBsUse=   228 1.00D-06 EigRej= -1.00D+00 NBFU=   228
 Initial guess from the checkpoint file:  "1.chk"
 B after Tr=     0.000000    0.000000   -0.000000
         Rot=    0.999993   -0.003703    0.000007    0.000398 Ang=  -0.43 deg.
 ExpMin= 1.61D-01 ExpMax= 5.48D+03 ExpMxC= 8.25D+02 IAcc=2 IRadAn=         4 AccDes= 0.00D+00
 Harris functional with IExCor=  402 and IRadAn=       4 diagonalized for initial guess.
 HarFok:  IExCor=  402 AccDes= 0.00D+00 IRadAn=         4 IDoV= 1 UseB2=F ITyADJ=14
 ICtDFT=  3500011 ScaDFX=  1.000000  1.000000  1.000000  1.000000
 FoFCou: FMM=F IPFlag=           0 FMFlag=      100000 FMFlg1=           0
         NFxFlg=           0 DoJE=T BraDBF=F KetDBF=T FulRan=T
         wScrn=  0.000000 ICntrl=       500 IOpCl=  0 I1Cent=   200000004 NGrid=           0
         NMat0=    1 NMatS0=      1 NMatT0=    0 NMatD0=    1 NMtDS0=    0 NMtDT0=    0
 Petite list used in FoFCou.
 Requested convergence on RMS density matrix=1.00D-08 within 128 cycles.
 Requested convergence on MAX density matrix=1.00D-06.
 Requested convergence on             energy=1.00D-06.
 No special actions if energy rises.
 Integral accuracy reduced to 1.0D-05 until final iterations.
 Initial convergence to 1.0D-05 achieved.  Increase integral accuracy.
 SCF Done:  E(RB3LYP) =  -592.668885592     A.U. after   13 cycles
            NFock= 13  Conv=0.66D-08     -V/T= 2.0096
 Calling FoFJK, ICntrl=      2127 FMM=F ISym2X=0 I1Cent= 0 IOpClX= 0 NMat=1 NMatS=1 NMatT=0.
 ***** Axes restored to original set *****
 -------------------------------------------------------------------
 Center     Atomic                   Forces (Hartrees/Bohr)
 Number     Number              X              Y              Z
 -------------------------------------------------------------------
      1        8          -0.000910244    0.002834646   -0.001824228
      2        6          -0.002019570   -0.004607265    0.006302698
      3        6           0.002090893    0.000095123   -0.002407348
      4        6          -0.001593649    0.000982212   -0.002097071
      5        6           0.000681217   -0.000201710    0.001279037
      6        6          -0.000214406    0.000157485   -0.000145923
      7        6           0.000870067   -0.000508912    0.000119034
      8        6          -0.002468050   -0.000590447    0.000614020
      9        6          -0.000722478    0.005345346   -0.002205220
     10        6           0.002488932   -0.000594960   -0.000477142
     11        6          -0.000895278    0.000120217    0.000242762
     12        6           0.001165390   -0.000320436   -0.000118529
     13        6          -0.003721046   -0.000141256    0.000741225
     14        7           0.004675613   -0.002733952   -0.000587555
     15        1           0.000174787   -0.000250159    0.000896681
     16        1           0.000037392   -0.000110755   -0.000123223
     17        1           0.000048293   -0.000182690   -0.000031058
     18        1          -0.000108936    0.000199776    0.000093115
     19        1           0.000786566   -0.000184254   -0.000251939
     20        1          -0.001062973    0.000035076    0.000209961
     21        1          -0.000077132    0.000213878   -0.000079833
     22        1          -0.000225135    0.000220188    0.000045538
     23        1           0.000999748    0.000222849   -0.000195003
 -------------------------------------------------------------------
 Cartesian Forces:  Max     0.006302698 RMS     0.001688498

 GradGradGradGradGradGradGradGradGradGradGradGradGradGradGradGradGradGrad
 Berny optimization.
 Using GEDIIS/GDIIS optimizer.
 FormGI is forming the generalized inverse of G from B-inverse, IUseBI=4.
 Internal  Forces:  Max     0.003968643 RMS     0.000906034
 Search for a local minimum.
 Step number   2 out of a maximum of  123
 All quantities printed in internal units (Hartrees-Bohrs-Radians)
 Mixed Optimization -- En-DIIS/RFO-DIIS
 Update second derivatives using D2CorX and points    1    2
 DE= -1.68D-03 DEPred=-1.54D-03 R= 1.09D+00
 TightC=F SS=  1.41D+00  RLast= 2.35D-01 DXNew= 5.0454D-01 7.0504D-01
 Trust test= 1.09D+00 RLast= 2.35D-01 DXMaxT set to 5.05D-01
 ITU=  1  0
 Use linear search instead of GDIIS.
     Eigenvalues ---    0.00795   0.00878   0.01101   0.01733   0.01751
     Eigenvalues ---    0.02085   0.02098   0.02106   0.02140   0.02154
     Eigenvalues ---    0.02158   0.02164   0.02193   0.02201   0.02207
     Eigenvalues ---    0.02235   0.02246   0.02261   0.02293   0.02304
     Eigenvalues ---    0.14220   0.15998   0.15999   0.15999   0.16000
     Eigenvalues ---    0.16000   0.16000   0.16000   0.16124   0.21550
     Eigenvalues ---    0.21998   0.22082   0.22380   0.22459   0.23494
     Eigenvalues ---    0.24489   0.24960   0.24994   0.27367   0.31630
     Eigenvalues ---    0.34308   0.35103   0.35146   0.35150   0.35169
     Eigenvalues ---    0.35198   0.35207   0.35246   0.35352   0.35499
     Eigenvalues ---    0.41772   0.41903   0.43168   0.44713   0.45539
     Eigenvalues ---    0.45840   0.46176   0.46556   0.47135   0.47970
     Eigenvalues ---    0.50800   0.53923   0.89865
 RFO step:  Lambda=-9.84164591D-04 EMin= 7.94672920D-03
 Quartic linear search produced a step of  0.18664.
 Iteration  1 RMS(Cart)=  0.08527268 RMS(Int)=  0.00194890
 Iteration  2 RMS(Cart)=  0.00447420 RMS(Int)=  0.00053214
 Iteration  3 RMS(Cart)=  0.00000647 RMS(Int)=  0.00053213
 Iteration  4 RMS(Cart)=  0.00000000 RMS(Int)=  0.00053213
 Variable       Old X    -DE/DX   Delta X   Delta X   Delta X     New X
                                 (Linear)    (Quad)   (Total)
    R1        2.32362  -0.00337  -0.00086  -0.00512  -0.00598   2.31764
    R2        2.82876  -0.00043   0.00332   0.00126   0.00458   2.83333
    R3        2.84436   0.00397   0.00478   0.01805   0.02283   2.86718
    R4        2.65257   0.00062   0.00145   0.00293   0.00439   2.65696
    R5        2.65113   0.00123   0.00026   0.00353   0.00379   2.65491
    R6        2.63662  -0.00054  -0.00081  -0.00204  -0.00284   2.63378
    R7        2.04625  -0.00054  -0.00126  -0.00284  -0.00410   2.04215
    R8        2.63816   0.00017   0.00055   0.00080   0.00135   2.63951
    R9        2.05336  -0.00000  -0.00019  -0.00017  -0.00036   2.05300
   R10        2.64071   0.00002   0.00128   0.00102   0.00229   2.64300
   R11        2.05449  -0.00011   0.00002  -0.00034  -0.00032   2.05417
   R12        2.63193  -0.00096  -0.00120  -0.00348  -0.00468   2.62725
   R13        2.05331   0.00006  -0.00013   0.00009  -0.00005   2.05327
   R14        2.05023   0.00017  -0.00117  -0.00041  -0.00158   2.04864
   R15        2.64544   0.00104   0.00274   0.00489   0.00763   2.65307
   R16        2.54606  -0.00265  -0.00343  -0.00889  -0.01232   2.53374
   R17        2.63073  -0.00040   0.00000  -0.00080  -0.00080   2.62993
   R18        2.04820  -0.00002  -0.00070  -0.00064  -0.00134   2.04686
   R19        2.63609  -0.00026   0.00175   0.00103   0.00277   2.63885
   R20        2.05367  -0.00016   0.00007  -0.00048  -0.00042   2.05326
   R21        2.63693   0.00036   0.00353   0.00386   0.00739   2.64432
   R22        2.05246  -0.00007   0.00051   0.00019   0.00070   2.05316
   R23        2.53042  -0.00189  -0.00420  -0.00775  -0.01195   2.51848
   R24        2.05695   0.00014   0.00061   0.00097   0.00158   2.05853
    A1        2.09688  -0.00152   0.00570  -0.00011   0.00233   2.09921
    A2        2.06100  -0.00040  -0.00410  -0.00301  -0.01033   2.05067
    A3        2.12415   0.00198  -0.00181   0.01013   0.00509   2.12924
    A4        2.15452   0.00252   0.00273   0.01389   0.01658   2.17110
    A5        2.04814  -0.00239  -0.00212  -0.01334  -0.01548   2.03266
    A6        2.07846  -0.00014  -0.00078  -0.00100  -0.00180   2.07666
    A7        2.09930  -0.00056   0.00046  -0.00229  -0.00188   2.09742
    A8        2.09763  -0.00036  -0.00307  -0.00580  -0.00893   2.08869
    A9        2.08616   0.00093   0.00260   0.00835   0.01090   2.09706
   A10        2.09742   0.00054   0.00002   0.00274   0.00275   2.10017
   A11        2.08937  -0.00034  -0.00050  -0.00230  -0.00281   2.08656
   A12        2.09634  -0.00019   0.00047  -0.00037   0.00009   2.09643
   A13        2.09226   0.00012  -0.00045  -0.00018  -0.00064   2.09161
   A14        2.09510   0.00002   0.00012   0.00058   0.00071   2.09581
   A15        2.09582  -0.00014   0.00034  -0.00040  -0.00006   2.09576
   A16        2.09446  -0.00024   0.00020  -0.00140  -0.00122   2.09325
   A17        2.09823  -0.00004   0.00028  -0.00018   0.00010   2.09833
   A18        2.09044   0.00028  -0.00048   0.00160   0.00113   2.09157
   A19        2.10407   0.00029   0.00055   0.00218   0.00272   2.10679
   A20        2.07597  -0.00099  -0.00380  -0.01018  -0.01398   2.06199
   A21        2.10314   0.00070   0.00325   0.00800   0.01126   2.11440
   A22        2.06578  -0.00201  -0.00196  -0.01102  -0.01300   2.05279
   A23        2.07041   0.00301   0.00207   0.01598   0.01801   2.08842
   A24        2.14615  -0.00101  -0.00017  -0.00532  -0.00549   2.14066
   A25        2.07299   0.00005   0.00055   0.00123   0.00177   2.07477
   A26        2.08575  -0.00114  -0.00417  -0.01198  -0.01615   2.06961
   A27        2.12442   0.00108   0.00362   0.01073   0.01435   2.13877
   A28        2.07114   0.00003  -0.00197  -0.00047  -0.00245   2.06868
   A29        2.10285   0.00016   0.00082   0.00136   0.00218   2.10503
   A30        2.10919  -0.00018   0.00115  -0.00088   0.00027   2.10946
   A31        2.06666  -0.00045   0.00036  -0.00149  -0.00114   2.06552
   A32        2.11524   0.00054   0.00055   0.00368   0.00424   2.11948
   A33        2.10129  -0.00009  -0.00092  -0.00219  -0.00310   2.09818
   A34        2.15918  -0.00038  -0.00056  -0.00273  -0.00329   2.15589
   A35        2.10901  -0.00087  -0.00016  -0.00680  -0.00696   2.10205
   A36        2.01499   0.00125   0.00072   0.00953   0.01025   2.02524
   A37        2.05020   0.00176   0.00179   0.00878   0.01058   2.06078
    D1       -2.65225   0.00032  -0.01917   0.02479   0.00577  -2.64648
    D2        0.41955   0.00023  -0.02253   0.01707  -0.00535   0.41420
    D3        0.54193  -0.00110  -0.01112  -0.13489  -0.14612   0.39581
    D4       -2.66946  -0.00119  -0.01448  -0.14261  -0.15724  -2.82670
    D5        0.24466  -0.00064   0.00127  -0.06984  -0.06833   0.17633
    D6       -2.85425  -0.00048   0.00292  -0.06064  -0.05743  -2.91168
    D7       -2.94848   0.00071  -0.00657   0.08675   0.07989  -2.86859
    D8        0.23579   0.00087  -0.00492   0.09595   0.09079   0.32658
    D9        3.06826   0.00008  -0.00895   0.00204  -0.00706   3.06120
   D10       -0.05838  -0.00030  -0.00800  -0.01863  -0.02664  -0.08502
   D11       -0.00239   0.00026  -0.00550   0.01034   0.00481   0.00242
   D12       -3.12903  -0.00013  -0.00455  -0.01033  -0.01477   3.13938
   D13       -3.09523  -0.00016   0.00429  -0.00035   0.00384  -3.09139
   D14        0.04511  -0.00012   0.00405   0.00094   0.00489   0.05000
   D15       -0.02028  -0.00013   0.00119  -0.00707  -0.00584  -0.02612
   D16        3.12006  -0.00009   0.00095  -0.00578  -0.00480   3.11527
   D17        0.02257  -0.00027   0.00629  -0.00940  -0.00314   0.01943
   D18       -3.13011  -0.00009   0.00336  -0.00257   0.00077  -3.12934
   D19       -3.13388   0.00010   0.00531   0.01101   0.01636  -3.11752
   D20       -0.00337   0.00028   0.00238   0.01783   0.02027   0.01690
   D21       -0.02016   0.00013  -0.00271   0.00499   0.00232  -0.01784
   D22        3.12410   0.00015  -0.00356   0.00524   0.00170   3.12579
   D23        3.13256  -0.00005   0.00023  -0.00185  -0.00159   3.13097
   D24       -0.00637  -0.00003  -0.00062  -0.00160  -0.00221  -0.00858
   D25       -0.00244  -0.00001  -0.00160  -0.00173  -0.00332  -0.00576
   D26       -3.13398  -0.00009  -0.00054  -0.00437  -0.00494  -3.13892
   D27        3.13648  -0.00003  -0.00075  -0.00198  -0.00270   3.13379
   D28        0.00494  -0.00011   0.00031  -0.00463  -0.00432   0.00062
   D29        0.02278   0.00000   0.00235   0.00279   0.00511   0.02789
   D30       -3.11755  -0.00004   0.00260   0.00150   0.00405  -3.11350
   D31       -3.12882   0.00008   0.00131   0.00542   0.00672  -3.12210
   D32        0.01404   0.00004   0.00155   0.00413   0.00566   0.01970
   D33       -3.10524   0.00010   0.00221   0.01018   0.01228  -3.09296
   D34        0.02954   0.00007   0.00175   0.00766   0.00936   0.03890
   D35       -0.00830   0.00004   0.00053   0.00110   0.00163  -0.00667
   D36        3.12648   0.00000   0.00008  -0.00142  -0.00129   3.12518
   D37        3.09794  -0.00023  -0.00295  -0.01204  -0.01510   3.08284
   D38        0.00111  -0.00004  -0.00119  -0.00228  -0.00347  -0.00236
   D39        0.00868   0.00000   0.00035   0.00119   0.00151   0.01019
   D40       -3.13763   0.00001   0.00068   0.00118   0.00185  -3.13578
   D41       -3.12595   0.00005   0.00084   0.00386   0.00468  -3.12126
   D42        0.01093   0.00005   0.00116   0.00385   0.00502   0.01595
   D43       -0.00248  -0.00003  -0.00054  -0.00217  -0.00269  -0.00518
   D44        3.13781  -0.00002   0.00019  -0.00106  -0.00085   3.13696
   D45       -3.13934  -0.00004  -0.00086  -0.00217  -0.00303   3.14081
   D46        0.00095  -0.00002  -0.00014  -0.00106  -0.00119  -0.00024
   D47       -0.00500   0.00003  -0.00015   0.00104   0.00091  -0.00409
   D48        3.13587   0.00001   0.00009   0.00038   0.00047   3.13634
   D49        3.13788   0.00002  -0.00088  -0.00007  -0.00091   3.13697
   D50       -0.00444  -0.00001  -0.00064  -0.00073  -0.00136  -0.00580
   D51        0.00568   0.00001   0.00100   0.00119   0.00217   0.00785
   D52       -3.13523   0.00003   0.00077   0.00182   0.00261  -3.13262
         Item               Value     Threshold  Converged?
 Maximum Force            0.003969     0.000015     NO 
 RMS     Force            0.000906     0.000010     NO 
 Maximum Displacement     0.295198     0.000060     NO 
 RMS     Displacement     0.085587     0.000040     NO 
 Predicted change in Energy=-5.691464D-04
 GradGradGradGradGradGradGradGradGradGradGradGradGradGradGradGradGradGrad

                          Input orientation:                          
 ---------------------------------------------------------------------
 Center     Atomic      Atomic             Coordinates (Angstroms)
 Number     Number       Type             X           Y           Z
 ---------------------------------------------------------------------
      1          8           0        0.318282   -2.229667    0.704371
      2          6           0        0.176963   -1.071457    0.326558
      3          6           0       -1.194701   -0.478919    0.202288
      4          6           0       -1.540049    0.541968   -0.700690
      5          6           0       -2.864407    0.962322   -0.809705
      6          6           0       -3.854378    0.390061   -0.007561
      7          6           0       -3.518780   -0.624755    0.894462
      8          6           0       -2.203262   -1.065308    0.985073
      9          6           0        1.419018   -0.324659   -0.122479
     10          6           0        2.601191   -1.064867   -0.282538
     11          6           0        3.769652   -0.396884   -0.636557
     12          6           0        3.720596    0.988291   -0.806491
     13          6           0        2.495482    1.637752   -0.618406
     14          7           0        1.369692    1.004757   -0.289685
     15          1           0       -0.772823    1.002189   -1.306818
     16          1           0       -3.121807    1.744001   -1.518919
     17          1           0       -4.883509    0.731265   -0.085518
     18          1           0       -4.284307   -1.076018    1.519685
     19          1           0       -1.925944   -1.868183    1.658680
     20          1           0        2.569224   -2.134686   -0.116157
     21          1           0        4.699212   -0.942627   -0.773109
     22          1           0        4.605181    1.557537   -1.078375
     23          1           0        2.419475    2.717888   -0.737411
 ---------------------------------------------------------------------
                    Distance matrix (angstroms):
                    1          2          3          4          5
     1  O    0.000000
     2  C    1.226444   0.000000
     3  C    2.367768   1.499335   0.000000
     4  C    3.620712   2.570313   1.406003   0.000000
     5  C    4.755074   3.831094   2.426772   1.393738   0.000000
     6  C    4.978044   4.301091   2.805895   2.420666   1.396768
     7  C    4.163523   3.765710   2.429345   2.796628   2.418926
     8  C    2.791542   2.469645   1.404920   2.421773   2.787404
     9  C    2.350394   1.517248   2.638332   3.137108   4.525078
    10  C    2.746347   2.499585   3.871329   4.461686   5.853218
    11  C    4.131481   3.780219   5.035393   5.392446   6.774079
    12  C    4.920741   4.252493   5.227856   5.280604   6.585054
    13  C    4.631076   3.688943   4.332584   4.182466   5.405664
[...]
 2,-0.01111785,-0.02851405,0.00533537,0.00062588,0.00071836,0.00066756,
 -0.00135238,0.00166132,-0.00096951,-0.00025119,-0.00042936,-0.00005943
 ,-0.00016988,-0.00003198,0.00022614,-0.00021168,0.00007277,-0.00012831
 ,0.00008823,0.00045623,-0.00000297,0.01323353,-0.32370789,0.04000920,0
 .08175174,-0.04685348,-0.00563264,-0.03388015,-0.05631751,0.01536972,-
 0.04081587,0.07028382,0.00128684,-0.07306883,-0.17169484,0.03295645,0.
 09601239,0.56924294,0.00345209,0.00270522,0.00221356,-0.00213937,0.010
 82310,-0.01034937,-0.00016530,-0.00041718,0.00054528,-0.00123364,0.001
 46335,-0.00207090,-0.00064622,-0.00081411,0.00102544,-0.00017840,0.000
 29322,-0.00011556,0.00002717,-0.00015807,0.00011359,-0.00017084,-0.000
 11308,0.00036571,0.00816527,0.03571860,-0.07544697,-0.01749201,0.00557
 349,0.02534477,0.00764878,0.01556483,-0.01336196,0.02705709,-0.0136432
 0,0.01924231,0.05705782,0.03919876,-0.08423669,-0.08886761,-0.10037389
 ,0.13199861,-0.00040542,-0.00030978,0.00017282,0.00142594,-0.00058788,
 -0.00009134,0.00991694,0.00389097,-0.00542774,-0.20440507,-0.09321411,
 0.11739486,-0.01561354,-0.01410965,0.01587619,-0.00390645,0.00302326,-
 0.00067189,-0.00032965,0.00079533,-0.00074436,0.00058082,0.00237903,-0
 .00133466,-0.00047539,0.00193800,-0.00069200,0.00013414,-0.00019348,0.
 00007083,-0.00005181,-0.00007199,0.00001455,0.00004942,-0.00008425,-0.
 00007417,-0.00103461,-0.00048466,0.00011861,-0.00559028,-0.00065389,-0
 .00078851,0.21863584,0.00045249,-0.00020087,0.00029724,-0.00206971,-0.
 00091761,-0.00198941,-0.01741462,-0.00741226,0.01163232,-0.09218672,-0
 .11416512,0.08430728,0.00903819,0.00940282,-0.00643566,0.00314164,0.00
 253815,0.00351051,0.00047850,-0.00029216,-0.00008082,0.00303755,-0.000
 41041,0.00518867,0.00080429,-0.00005426,0.00056670,0.00030204,-0.00016
 989,0.00008221,-0.00013660,-0.00020862,0.00005399,-0.00021679,0.000145
 30,0.00014963,0.00000968,0.00051479,-0.00038419,-0.00210274,-0.0005256
 6,-0.00066571,0.09834944,0.11330551,-0.00027263,-0.00020276,0.00060396
 ,0.00059858,-0.00249742,-0.00191192,0.01516823,0.00770914,-0.00711169,
 0.11315961,0.08234721,-0.13136352,-0.00308467,-0.00077475,0.00552592,-
 0.00011393,0.00338890,0.00482935,-0.00062170,-0.00009857,-0.00023498,-
 0.00148796,0.00572339,0.00174553,-0.00081544,0.00144568,0.00015963,-0.
 00008913,-0.00037122,0.00000399,0.00002126,0.00000042,-0.00001852,0.00
 023495,0.00000657,-0.00028959,-0.00021402,-0.00081741,0.00015952,0.000
 45295,0.00042940,0.00098740,-0.12366487,-0.09371645,0.12955445,-0.0007
 9155,0.00066276,-0.00016886,0.00112105,0.00065234,-0.00091016,-0.00541
 253,0.00147959,0.00133094,-0.00313623,0.02392890,-0.02028401,-0.074647
 96,0.05140240,-0.03718359,0.00970666,-0.01859003,0.01494059,-0.0030951
 0,-0.00104220,0.00299335,-0.00115744,-0.00034470,0.00041745,-0.0000125
 0,0.00012530,0.00003443,-0.00007390,-0.00008320,0.00002784,0.00002222,
 0.00003018,-0.00000772,-0.00000042,-0.00006975,0.00000768,-0.00009117,
 0.00007148,0.00000308,0.00000702,-0.00006940,0.00003709,0.00105531,-0.
 00076244,-0.00032757,0.07519773,0.00028589,-0.00042855,-0.00008400,-0.
 00083687,0.00032109,0.00050402,0.00270162,0.00377949,0.00257979,0.0004
 0297,-0.00409126,0.00546729,0.05150455,-0.20699611,0.14117160,0.005039
 55,-0.00732092,0.00738722,-0.00203181,0.00298339,0.00392288,-0.0002533
 8,0.00019973,-0.00041462,-0.00001469,-0.00004744,0.00000016,0.00005635
 ,0.00005562,-0.00002668,-0.00001614,-0.00001727,0.00000523,-0.00000072
 ,0.00003576,-0.00000318,0.00004286,-0.00003174,-0.00000233,-0.00000739
 ,0.00003651,-0.00003305,-0.00021164,-0.00118591,-0.00250626,-0.0562176
 0,0.21462009,-0.00029676,0.00002662,-0.00026021,0.00057278,0.00016965,
 0.00038876,0.00038570,0.00272527,0.00473591,0.00026230,0.00056544,0.00
 171237,-0.03696594,0.14111957,-0.15282766,-0.00611752,0.01230243,-0.00
 736530,0.00389698,0.00368968,0.00280575,0.00053490,-0.00052541,0.00005
 409,-0.00004320,0.00000091,0.00000699,-0.00002691,-0.00003345,0.000021
 59,0.00001393,0.00001002,-0.00000482,-0.00000418,-0.00004073,0.0000207
 2,-0.00003606,0.00008737,0.00000263,-0.00012738,-0.00004313,-0.0000891
 4,-0.00050022,-0.00226577,-0.00189711,0.03937308,-0.15570005,0.1552607
 6,-0.00016674,0.00013092,0.00001803,0.00023480,-0.00021798,-0.00017466
 ,0.00049381,-0.00049913,0.00024550,-0.00113964,-0.00226312,0.00383369,
 -0.01677436,0.00905364,-0.00366877,-0.30995327,0.08385541,-0.01550287,
 -0.00318083,0.00049436,0.00096605,0.00175896,0.00162200,-0.00027885,-0
 .00001045,-0.00004021,0.00004031,-0.00002793,-0.00002847,0.00003526,0.
 00000693,0.00000280,-0.00000681,-0.00001614,-0.00001596,0.00002378,0.0
 0001471,0.00010087,-0.00002941,-0.00019016,-0.00003833,-0.00012449,-0.
 00076864,0.00056330,-0.00021254,0.00084264,-0.00068503,-0.00040328,0.3
 2843651,0.00028290,0.00011806,0.00000394,-0.00019482,-0.00070564,-0.00
 059748,-0.00056650,-0.00067414,0.00024898,-0.00147780,0.00195791,0.005
 05158,-0.01444079,0.00842974,-0.00132917,0.08387265,-0.07779327,0.0174
 1677,0.02389853,-0.00265506,0.00016339,0.00090238,-0.00050220,0.006544
 85,-0.00005229,0.00000821,0.00010040,0.00006931,0.00001224,0.00000224,
 -0.00003428,-0.00003472,-0.00000080,-0.00002216,0.00004456,0.00000325,
 0.00006016,0.00000794,-0.00005446,-0.00004163,0.00001973,-0.00006081,-
 0.00070046,0.00028815,-0.00008750,-0.00011054,-0.00112566,-0.00237023,
 -0.09169543,0.07373734,-0.00002306,-0.00008313,0.00026264,-0.00017390,
 -0.00057394,-0.00078748,0.00025381,0.00038390,-0.00093380,0.00305415,0
 .00520097,0.00222920,0.01698615,-0.00634730,0.00538293,-0.01551578,0.0
 1739373,-0.04983127,-0.01964759,0.00525714,0.00291692,0.00053688,0.006
 30460,0.00160910,-0.00011959,0.00011856,0.00007474,0.00002123,-0.00003
 293,0.00000965,-0.00001669,-0.00001887,-0.00000596,-0.00000466,0.00001
 500,-0.00001838,0.00000160,-0.00004602,-0.00003934,0.00012896,0.000069
 87,0.00007103,0.00075236,-0.00042961,0.00004381,-0.00091999,-0.0022598
 4,-0.00164291,0.01587805,-0.02271404,0.04224097,-0.00003363,0.00046776
 ,-0.00022711,-0.00013482,-0.00166009,0.00121538,-0.00398261,0.00400830
 ,-0.00070757,-0.00024786,0.00073656,-0.00067162,0.00072121,0.00211542,
 -0.00053659,0.00938178,0.00457844,-0.00555444,-0.19969175,-0.08618545,
 0.11041209,-0.01746431,-0.01532700,0.01755505,-0.00029808,0.00041410,-
 0.00021258,-0.00016326,-0.00017346,0.00006416,0.00000601,0.00006910,0.
 00000541,0.00000719,-0.00005445,0.00000726,-0.00005701,0.00005443,0.00
 002817,0.00000609,-0.00005796,-0.00001839,0.00002564,-0.00023831,-0.00
 006220,0.00038063,0.00033285,-0.00029302,0.00070884,-0.00080413,-0.000
 21874,0.20984593,-0.00004103,0.00002546,0.00005650,0.00045471,0.000469
 96,-0.00010429,0.00273346,0.00300949,0.00339219,0.00078111,-0.00057372
 ,-0.00001392,0.00312868,-0.00017606,0.00554596,-0.01911149,-0.00695774
 ,0.01212028,-0.08608145,-0.10620521,0.07996826,0.00810527,0.00785200,-
 0.00654245,0.00017027,-0.00010204,-0.00013622,0.00001422,0.00004740,-0
 .00000222,0.00001913,-0.00001019,0.00000523,-0.00000048,-0.00001212,0.
 00000597,-0.00001085,0.00002742,0.00001817,-0.00006085,-0.00005779,-0.
 00003287,-0.00015466,-0.00047994,-0.00066089,-0.00095914,-0.00029548,0
 .00083040,-0.00022526,-0.00093875,-0.00239600,0.09214251,0.10560268,0.
 00025740,-0.00008987,0.00005466,-0.00041324,0.00014806,0.00038962,0.00
 009679,0.00331501,0.00472495,-0.00062188,-0.00005176,-0.00012734,-0.00
 148512,0.00567132,0.00225301,0.01515748,0.00711442,-0.00725613,0.11025
 990,0.07993521,-0.12921027,-0.00291409,-0.00158737,0.00429709,0.000002
 69,0.00000582,-0.00023492,0.00000100,0.00002641,-0.00000829,0.00000497
 ,0.00000177,0.00001924,0.00000245,-0.00000538,-0.00000178,-0.00001277,
 0.00000073,0.00003394,0.00002740,-0.00005679,0.00000523,-0.00004079,-0
 .00068924,-0.00071841,0.00083869,0.00053461,-0.00026550,-0.00073845,-0
 .00225623,-0.00155797,-0.11995725,-0.08964108,0.12963458,-0.00180147,0
 .00141915,-0.00089003,0.00049770,-0.00275320,0.00091719,0.01050077,-0.
 01686865,0.01315377,-0.00372127,-0.00128252,0.00302485,-0.00100737,-0.
 00028789,0.00037229,-0.00500954,0.00179722,0.00134998,-0.00252754,0.02
 331289,-0.01835756,-0.07575051,0.05521870,-0.04094102,0.00021578,0.000
 29212,-0.00002794,0.00016157,0.00009074,-0.00005656,-0.00009559,-0.000
 05288,0.00002717,-0.00003956,0.00014826,0.00000379,0.00020847,0.000038
 84,-0.00003887,0.00006470,0.00006652,-0.00011494,0.00052695,-0.0008959
 6,0.00104492,0.00009415,-0.00009142,-0.00020914,-0.00024810,0.00106590
 ,-0.00098432,0.00101536,-0.00090729,-0.00046030,0.07696376,0.00262216,
 0.00113316,-0.00148212,0.00101268,-0.00407160,-0.00071935,0.00191635,-
 0.00743380,0.00933741,-0.00187552,0.00214648,0.00325206,-0.00011668,0.
 00024435,-0.00054622,0.00203631,0.00372680,0.00279630,0.00044349,-0.00
 205597,0.00481000,0.05469489,-0.21723626,0.14037951,-0.00010774,0.0000
 7923,0.00012018,-0.00002137,-0.00005336,0.00006088,-0.00001163,0.00003
 698,-0.00003272,0.00000670,-0.00001580,0.00001253,-0.00001315,0.000014
 01,-0.00000162,-0.00005660,-0.00005495,-0.00005208,0.00040234,-0.00008
 480,0.00060718,-0.00006316,-0.00051387,-0.00052460,-0.00009543,-0.0002
 0023,0.00016152,-0.00038522,-0.00122143,-0.00237816,-0.06037688,0.2255
 4637,-0.00100894,-0.00166946,0.00116456,-0.00179422,0.00017677,-0.0028
 4588,-0.00524517,0.01358661,-0.00646185,0.00392324,0.00319341,0.002200
 53,0.00024950,-0.00046059,-0.00010313,0.00084544,0.00308524,0.00498660
 ,0.00093127,0.00045991,0.00338128,-0.03879998,0.13973770,-0.15018866,0
 .00008273,0.00001127,0.00019373,-0.00010689,-0.00002894,0.00008540,0.0
 0004694,0.00002703,-0.00006168,0.00004167,-0.00009343,0.00000141,-0.00
 016149,-0.00005019,0.00001094,0.00005467,-0.00002939,0.00007152,-0.000
 34894,0.00093674,-0.00012068,-0.00019023,-0.00055254,-0.00065524,0.000
 10149,-0.00007271,-0.00003871,-0.00082822,-0.00241096,-0.00202631,0.04
 216912,-0.15581068,0.15038441,-0.00088369,-0.00253541,0.00058413,-0.00
 032869,0.00290064,-0.00164131,0.00058169,-0.00039854,0.00031827,0.0001
 5461,0.00020523,-0.00026277,0.00004286,-0.00003770,0.00004586,0.000046
 18,-0.00000603,0.00001484,-0.00000246,-0.00008358,0.00007364,-0.000035
 15,-0.00012006,0.00006014,0.00850042,0.02476441,-0.00572571,-0.0584018
 1,-0.00385640,0.00351451,0.00446451,-0.02715067,0.00485301,-0.00393754
 ,-0.00164435,0.00307673,-0.00195898,-0.00079022,0.00045369,-0.00511087
 ,0.00534120,0.00178377,0.00007489,-0.00001898,0.00011902,0.00003827,-0
 .00002719,0.00001640,0.00001093,-0.00001665,0.00000613,0.00002637,0.00
 000251,-0.00001099,-0.00010106,0.00000570,0.00005531,0.05552765,-0.003
 39827,0.00115576,0.00027448,-0.00028207,-0.00244101,0.00064418,0.00007
 051,0.00013631,0.00002876,-0.00000271,0.00000871,0.00004163,-0.0000363
 4,0.00001753,-0.00000282,-0.00000284,0.00001269,-0.00001167,0.00001426
 ,0.00001404,-0.00003447,-0.00003149,0.00001986,0.00003329,-0.00120569,
 -0.01296692,0.00310068,-0.00241595,-0.33935318,0.05497855,0.00141598,-
 0.00724661,0.00181972,-0.00185350,0.00131779,0.00184688,0.00037064,0.0
 0096734,-0.00034028,0.00317907,-0.00036368,0.00087768,-0.00007209,-0.0
 0002670,-0.00006115,-0.00000450,0.00000374,-0.00000089,0.00000130,0.00
 000280,-0.00000447,0.00000022,-0.00000381,-0.00000120,0.00002167,0.000
 02510,-0.00001717,0.00443832,0.35853635,0.00129640,0.00041708,-0.00089
 049,-0.00065690,-0.00024961,-0.00247908,-0.00009665,0.00015018,-0.0000
 4263,-0.00006642,-0.00000554,0.00006569,-0.00006795,0.00003469,0.00001
 316,-0.00000062,0.00004558,-0.00003412,0.00002299,-0.00005101,-0.00002
 120,-0.00005648,0.00011895,0.00004411,-0.00281516,-0.00259803,0.003386
 14,0.00444811,0.05600364,-0.05049331,-0.00043513,0.00741834,0.00230878
 ,0.00287084,0.00157770,0.00741561,0.00033029,-0.00002465,-0.00048048,0
 .00262441,0.00002889,0.00679727,-0.00006838,-0.00005458,-0.00004774,-0
 .00001876,0.00001283,-0.00000684,-0.00000762,0.00000166,-0.00000484,-0
 .00001350,0.00000052,0.00000338,0.00004755,0.00000280,0.00000624,-0.00
 580519,-0.06198717,0.03973901,0.00011772,-0.00036067,0.00017019,-0.000
 46523,0.00174189,-0.00052622,-0.00027289,-0.00040201,0.00020930,0.0000
 0425,-0.00004506,0.00001343,-0.00002494,0.00000113,0.00002203,-0.00001
 130,0.00000183,-0.00000157,-0.00002816,-0.00000346,0.00002728,-0.00009
 998,0.00013160,-0.00010152,-0.00223123,-0.00408732,0.00332417,-0.01831
 562,0.01542552,0.00237841,-0.26509288,0.12217705,0.02839891,0.00374629
 ,-0.00119895,0.00034005,0.00216276,-0.00016478,0.00148015,0.00003233,-
 0.00068567,-0.00078863,0.00001423,-0.00000777,0.00000940,-0.00001261,0
 .00001335,-0.00000691,-0.00001303,0.00000228,-0.00000232,-0.00003054,0
 .00000266,0.00000528,0.00002244,-0.00000992,-0.00000620,0.00095728,-0.
 00033459,-0.00110238,0.27895414,0.00022368,-0.00003136,-0.00000390,-0.
 00082131,0.00075401,-0.00012645,-0.00011172,-0.00021792,0.00009256,0.0
 0000041,-0.00000437,0.00000473,0.00000461,0.00001429,0.00000135,-0.000
 00118,0.00000054,-0.00000221,-0.00000486,-0.00001007,0.00002383,-0.000
 06572,0.00003447,-0.00003318,-0.00275260,-0.00077839,0.00232978,-0.014
 33508,0.01273302,0.00176119,0.12199241,-0.13275649,-0.01112869,0.02888
 889,-0.01033311,-0.00380128,-0.00143598,-0.00570751,0.00272497,-0.0006
 3356,-0.00036686,-0.00043993,-0.00002043,-0.00000734,-0.00001368,-0.00
 000435,0.00000017,-0.00000123,0.00000131,-0.00000149,-0.00000193,-0.00
 000632,0.00000310,-0.00000032,-0.00000243,-0.00000306,0.00000170,0.000
 33779,0.00063416,-0.00090159,-0.13218890,0.13559462,0.00012725,0.00031
 908,0.00002326,-0.00006964,-0.00063017,-0.00010250,0.00013934,-0.00002
 650,-0.00009915,-0.00000858,0.00009417,-0.00010866,-0.00001352,-0.0000
 2083,0.00002395,-0.00000250,0.00000942,-0.00000440,0.00000912,0.000001
 50,0.00000178,0.00002361,-0.00003386,0.00003245,0.00319286,0.00253555,
 0.00764732,0.00733527,-0.00461932,0.00382368,0.02842523,-0.01111696,-0
 .04487261,-0.00471543,0.00263428,0.00498760,0.00160196,0.00253578,0.00
 807417,-0.00076891,-0.00047609,-0.00383003,-0.00000728,-0.00001969,0.0
 0003533,0.00000473,-0.00000217,0.00000024,-0.00000038,-0.00000256,0.00
 000195,0.00000747,-0.00000164,-0.00000203,-0.00001182,0.00000548,0.000
 00471,-0.00125693,-0.00090113,-0.00376564,-0.03280800,0.01048217,0.031
 94716,-0.00002476,-0.00009742,0.00013415,0.00001554,-0.00010823,-0.000
 46344,-0.00006481,0.00000679,0.00005691,-0.00004260,0.00002555,-0.0001
 1149,-0.00000508,-0.00007577,0.00002703,-0.00002316,-0.00000298,0.0000
 2267,-0.00003812,0.00001569,-0.00001431,0.00003774,0.00004574,-0.00002
 526,0.00043882,0.00200490,-0.00052940,0.00181851,0.00122513,0.00113609
 ,0.00589715,0.00250640,-0.00109203,-0.24920708,-0.11680931,0.06571593,
 -0.01555595,-0.01882637,0.00667843,-0.00462249,0.00329398,0.00212414,0
 .00005546,-0.00002793,0.00013091,-0.00000746,0.00000772,-0.00000967,-0
 .00001505,0.00000291,0.00000869,-0.00001228,-0.00000442,0.00000186,0.0
 0000465,-0.00000474,0.00000260,0.00018717,0.00028021,-0.00005311,0.000
 54189,-0.00058544,-0.00086626,0.26010102,-0.00023975,0.00021839,0.0000
 4906,0.00005960,-0.00009729,-0.00029611,-0.00010822,-0.00001644,0.0000
 5889,0.00001337,-0.00006729,0.00005056,0.00000021,0.00001066,-0.000012
 42,-0.00000236,-0.00000789,0.00000062,-0.00000785,0.00001001,-0.000010
 08,-0.00000536,0.00003932,-0.00001604,0.00094058,-0.00149868,0.0000353
 6,0.00196115,-0.00537309,0.00184033,-0.02759577,-0.00998857,0.00811630
 ,-0.11693777,-0.13373768,0.04142575,0.01288843,0.01277030,-0.00480013,
 0.00408011,-0.00008586,0.00050533,0.00000119,0.00002568,-0.00002907,-0
 .00000350,0.00000475,-0.00000070,-0.00000120,0.00000404,-0.00000019,-0
 .00000676,-0.00000059,0.00000105,0.00001383,0.00000086,-0.00000676,-0.
 00133844,-0.00028653,0.00032471,0.00017979,0.00107519,-0.00086067,0.12
 682839,0.13660309,0.00020458,0.00027880,0.00022208,-0.00052614,-0.0003
 4850,-0.00192312,-0.00014640,0.00000378,0.00020573,0.00000631,-0.00007
 964,0.00003273,0.00006480,-0.00002611,-0.00007215,-0.00001199,-0.00004
 889,0.00004592,-0.00005693,0.00001801,-0.00003880,0.00007394,0.0000582
 3,0.00000389,-0.00015575,-0.00036220,-0.00024874,0.00111867,0.00208422
 ,0.00748067,0.00392365,0.00150581,0.00168157,0.06568876,0.04140468,-0.
 05773616,0.00133602,0.00211074,0.00015904,0.00198296,0.00058624,0.0074
 7570,0.00001598,0.00007464,0.00000349,0.00000092,-0.00000037,0.0000011
 7,0.00000737,0.00001072,0.00001131,-0.00000064,-0.00000175,-0.00000652
 ,-0.00000437,0.00000191,0.00000594,0.00017567,-0.00000337,0.00011851,-
 0.00099009,-0.00068709,-0.00355405,-0.07207716,-0.04598219,0.04880954,
 -0.00048811,-0.00050758,0.00030890,0.00105992,-0.00058533,-0.00005066,
 -0.00008043,-0.00001496,0.00005442,-0.00010509,-0.00002200,0.00002989,
 -0.00000012,-0.00000543,0.00002068,-0.00003329,-0.00000260,0.00001111,
 -0.00001981,0.00002409,-0.00001171,-0.00000257,0.00005324,-0.00003989,
 -0.00268458,-0.00276588,0.00322382,-0.00072793,-0.00057897,0.00018412,
 -0.00490720,0.00189711,0.00228784,0.00293194,0.02807389,-0.00395810,-0
 .05981332,0.03266466,-0.00122947,-0.00246677,-0.03631477,0.00537511,0.
 00008528,-0.00009854,0.00002682,-0.00002680,0.00000617,-0.00001586,-0.
 00000381,0.00000049,-0.00000140,-0.00000889,0.00000240,-0.00000103,0.0
 0002571,-0.00000257,-0.00001370,0.00014742,-0.00015212,-0.00037632,0.0
 0004508,0.00152078,-0.00033759,0.00052087,-0.00071967,-0.00063017,0.06
 655250,-0.00044431,-0.00044902,0.00023147,0.00113949,0.00003396,-0.000
 15740,-0.00017233,-0.00001388,0.00005380,-0.00013892,-0.00005473,-0.00
 012178,-0.00002149,-0.00006044,0.00007256,-0.00004408,0.00000768,0.000
 01768,-0.00003935,0.00003545,-0.00001745,0.00002098,0.00008563,-0.0000
 6234,-0.00140042,0.00209234,0.00158531,0.00015718,0.00043171,-0.000130
 12,0.00314132,0.00047976,0.00037947,-0.00111253,-0.01011818,0.00285876
 ,0.03198778,-0.32339593,0.03925119,-0.01079383,-0.01579493,0.00408041,
 0.00008941,-0.00007882,0.00017925,-0.00002845,0.00001389,-0.00002118,-
 0.00002036,0.00000046,0.00000296,-0.00002056,-0.00000265,0.00000299,0.
 00003326,-0.00000820,-0.00001355,0.00002841,-0.00016373,-0.00026540,-0
 .00018798,-0.00062559,0.00009414,0.00029920,0.00039764,-0.00059769,-0.
 02247242,0.34718756,-0.00000889,0.00002776,-0.00039059,-0.00034005,0.0
 0017433,0.00083396,0.00006872,0.00001916,-0.00004641,-0.00008509,0.000
 10410,-0.00010765,-0.00001617,-0.00005122,0.00003382,-0.00000627,0.000
 01676,-0.00001176,0.00001359,-0.00001661,0.00000637,-0.00000549,-0.000
 03098,0.00002994,0.00328938,0.00237691,0.00983678,0.00002674,0.0001248
 7,-0.00030369,0.00207719,0.00075748,0.00653019,0.00083529,-0.00336913,
 0.00630371,-0.00129768,0.03889808,-0.04694780,0.00156406,0.00941653,-0
 .00675681,0.00003892,-0.00006878,0.00006178,0.00000104,-0.00000054,0.0
 0000374,-0.00000140,-0.00000177,0.00000642,0.00000690,0.00000082,-0.00
 000023,-0.00001375,-0.00000021,0.00000487,-0.00044825,-0.00028007,-0.0
 0163153,-0.00004475,-0.00028081,-0.00026453,-0.00079728,-0.00039359,-0
 .00267775,-0.00485678,-0.04742308,0.03548716\\0.00000012,0.00000027,0.
 00000072,-0.00000048,0.00000010,0.00000047,0.00000040,0.00000026,-0.00
 000021,-0.00000008,-0.00000021,-0.00000024,0.00000036,-0.00000015,-0.0
 0000058,-0.00000014,-0.00000016,-0.00000028,-0.00000011,0.00000026,-0.
 00000001,-0.00000028,0.00000034,0.00000031,0.00000046,-0.00000020,0.00
 000039,-0.00000051,0.,0.00000057,0.00000032,0.00000023,0.00000033,0.00
 000017,-0.00000052,-0.00000009,-0.00000014,-0.00000006,-0.00000012,0.0
 0000002,0.00000009,-0.00000043,-0.00000002,-0.00000040,-0.00000040,0.,
 -0.00000047,-0.00000078,-0.00000001,0.00000004,-0.00000062,-0.00000010
 ,0.00000044,0.00000007,-0.00000006,0.00000058,0.00000040,0.00000006,0.
 00000009,0.00000082,0.00000002,-0.00000018,0.00000064,0.,-0.00000015,-
 0.00000019,0.00000002,-0.00000021,-0.00000078\\\@


 PERICLES, SOPHOCLES,
 PELOPONESIAN WAR,
 FRENCH VERBS, LATIN VERBS
 H2SO4.
 Job cpu time:       0 days  0 hours  0 minutes 53.0 seconds.
 Elapsed time:       0 days  0 hours  1 minutes  4.6 seconds.
 File lengths (MBytes):  RWF=    144 Int=      0 D2E=      0 Chk=      8 Scr=      1
 Normal termination of Gaussian 16 at Sat Nov 16 06:49:23 2024.
